 DBCSR| Multiplication driver                                               BLAS
 DBCSR| Multrec recursion limit                                              512
 DBCSR| Multiplication stack size                                           1000
 DBCSR| Maximum elements for images                                    UNLIMITED
 DBCSR| Multiplicative factor virtual images                                   1
 DBCSR| Multiplication size stacks                                             3
 DBCSR| Number of 3D layers                                               SINGLE
 DBCSR| Use MPI memory allocation                                              T
 DBCSR| Use RMA algorithm                                                      F
 DBCSR| Use Communication thread                                               T
 DBCSR| Communication thread load                                             87


  **** **** ******  **  PROGRAM STARTED AT               2019-07-09 18:09:17.119
 ***** ** ***  *** **   PROGRAM STARTED ON        blg7124.int.ets1.calculquebec.
 **    ****   ******    PROGRAM STARTED BY                                   rzk
 ***** **    ** ** **   PROGRAM PROCESS ID                                 19595
  **** **  *******  **  PROGRAM STARTED IN /lustre04/scratch/rzk/rzk/GaN-carbene
                                           /443-adatoms-both-2x2/09-BondBreaking
                                           -CH/03-0501-CH-to-Nsur-PES

 CP2K| version string:                    CP2K version 7.0 (Development Version)
 CP2K| source code revision number:                                    svn:18619
 CP2K| cp2kflags: libint fftw3 libxc parallel mpi3 scalapack mkl                
 CP2K| is freely available from                            https://www.cp2k.org/
 CP2K| Program compiled at                          Sun Apr  7 00:48:11 EDT 2019
 CP2K| Program compiled on                      beluga2.int.ets1.calculquebec.ca
 CP2K| Program compiled for                    Beluga-Linux-x86-64-intel-openmpi
 CP2K| Data directory path    /home/rzk/projects/def-rzk/group/cp2k/cp2k-mcgill/
 CP2K| Input file name                                                 start.inp
 
 GLOBAL| Force Environment number                                              1
 GLOBAL| Basis set file name                                        BASIS_MOLOPT
 GLOBAL| Potential file name                                      GTH_POTENTIALS
 GLOBAL| MM Potential file name                                     MM_POTENTIAL
 GLOBAL| Coordinate file name                                      __STD_INPUT__
 GLOBAL| Method name                                                        CP2K
 GLOBAL| Project name                                                       TEST
 GLOBAL| Preferred FFT library                                             FFTW3
 GLOBAL| Preferred diagonalization lib.                                       SL
 GLOBAL| Run type                                                        GEO_OPT
 GLOBAL| All-to-all communication in single precision                          F
 GLOBAL| FFTs using library dependent lengths                                  F
 GLOBAL| Global print level                                               MEDIUM
 GLOBAL| MPI I/O enabled                                                       T
 GLOBAL| Total number of message passing processes                            80
 GLOBAL| Number of threads for this process                                    1
 GLOBAL| This output is from process                                           0
 GLOBAL| CPU model name :  Intel(R) Xeon(R) Gold 6148 CPU @ 2.40GHz

 MEMORY| system memory details [Kb]
 MEMORY|                        rank 0           min           max       average
 MEMORY| MemTotal            196614300     196614300     196614300     196614300
 MEMORY| MemFree             179672460     148980988     179672460     164371405
 MEMORY| Buffers                     0             0            76            38
 MEMORY| Cached                2022360       2022360      22192244      12107302
 MEMORY| Slab                  2564512       2564512       7177800       4871156
 MEMORY| SReclaimable           401784        340392        401784        371088
 MEMORY| MemLikelyFree       182096604     171513700     182096604     176849833


 *** Fundamental physical constants (SI units) ***

 *** Literature: B. J. Mohr and B. N. Taylor,
 ***             CODATA recommended values of the fundamental physical
 ***             constants: 2006, Web Version 5.1
 ***             http://physics.nist.gov/constants

 Speed of light in vacuum [m/s]                             2.99792458000000E+08
 Magnetic constant or permeability of vacuum [N/A**2]       1.25663706143592E-06
 Electric constant or permittivity of vacuum [F/m]          8.85418781762039E-12
 Planck constant (h) [J*s]                                  6.62606896000000E-34
 Planck constant (h-bar) [J*s]                              1.05457162825177E-34
 Elementary charge [C]                                      1.60217648700000E-19
 Electron mass [kg]                                         9.10938215000000E-31
 Electron g factor [ ]                                     -2.00231930436220E+00
 Proton mass [kg]                                           1.67262163700000E-27
 Fine-structure constant                                    7.29735253760000E-03
 Rydberg constant [1/m]                                     1.09737315685270E+07
 Avogadro constant [1/mol]                                  6.02214179000000E+23
 Boltzmann constant [J/K]                                   1.38065040000000E-23
 Atomic mass unit [kg]                                      1.66053878200000E-27
 Bohr radius [m]                                            5.29177208590000E-11

 *** Conversion factors ***

 [u] -> [a.u.]                                              1.82288848426455E+03
 [Angstrom] -> [Bohr] = [a.u.]                              1.88972613288564E+00
 [a.u.] = [Bohr] -> [Angstrom]                              5.29177208590000E-01
 [a.u.] -> [s]                                              2.41888432650478E-17
 [a.u.] -> [fs]                                             2.41888432650478E-02
 [a.u.] -> [J]                                              4.35974393937059E-18
 [a.u.] -> [N]                                              8.23872205491840E-08
 [a.u.] -> [K]                                              3.15774647902944E+05
 [a.u.] -> [kJ/mol]                                         2.62549961709828E+03
 [a.u.] -> [kcal/mol]                                       6.27509468713739E+02
 [a.u.] -> [Pa]                                             2.94210107994716E+13
 [a.u.] -> [bar]                                            2.94210107994716E+08
 [a.u.] -> [atm]                                            2.90362800883016E+08
 [a.u.] -> [eV]                                             2.72113838565563E+01
 [a.u.] -> [Hz]                                             6.57968392072181E+15
 [a.u.] -> [1/cm] (wave numbers)                            2.19474631370540E+05
 [a.u./Bohr**2] -> [1/cm]                                   5.14048714338585E+03
 
          ----------------------------------------------------------------------
 COLVARS| COLVAR INPUT INDEX:        1
 COLVARS| BOND          >>> ATOMS:                                   176     211
          ----------------------------------------------------------------------

 CELL_TOP| Volume [angstrom^3]:                                         4586.323
 CELL_TOP| Vector a [angstrom    12.864     0.000     0.000    |a| =      12.864
 CELL_TOP| Vector b [angstrom    -6.432    11.141     0.000    |b| =      12.864
 CELL_TOP| Vector c [angstrom     0.000     0.000    32.000    |c| =      32.000
 CELL_TOP| Angle (b,c), alpha [degree]:                                   90.000
 CELL_TOP| Angle (a,c), beta  [degree]:                                   90.000
 CELL_TOP| Angle (a,b), gamma [degree]:                                  120.000
 CELL_TOP| Numerically orthorhombic:                                          NO
 RESTRAINT| Active restraint on COLLECTIVE section Nr.     1. K [a.u.]= 2.000000
 
 GENERATE|  Preliminary Number of Bonds generated:                             0
 GENERATE|  Achieved consistency in connectivity generation.

 CELL| Volume [angstrom^3]:                                             4586.323
 CELL| Vector a [angstrom]:      12.864     0.000     0.000    |a| =      12.864
 CELL| Vector b [angstrom]:      -6.432    11.141     0.000    |b| =      12.864
 CELL| Vector c [angstrom]:       0.000     0.000    32.000    |c| =      32.000
 CELL| Angle (b,c), alpha [degree]:                                       90.000
 CELL| Angle (a,c), beta  [degree]:                                       90.000
 CELL| Angle (a,b), gamma [degree]:                                      120.000
 CELL| Numerically orthorhombic:                                              NO

 CELL_REF| Volume [angstrom^3]:                                         4670.759
 CELL_REF| Vector a [angstrom    12.982     0.000     0.000    |a| =      12.982
 CELL_REF| Vector b [angstrom    -6.491    11.243     0.000    |b| =      12.982
 CELL_REF| Vector c [angstrom     0.000     0.000    32.000    |c| =      32.000
 CELL_REF| Angle (b,c), alpha [degree]:                                   90.000
 CELL_REF| Angle (a,c), beta  [degree]:                                   90.000
 CELL_REF| Angle (a,b), gamma [degree]:                                  120.000
 CELL_REF| Numerically orthorhombic:                                          NO

 *******************************************************************************
 *******************************************************************************
 **                                                                           **
 **     #####                         ##              ##                      **
 **    ##   ##            ##          ##              ##                      **
 **   ##     ##                       ##            ######                    **
 **   ##     ##  ##   ##  ##   #####  ##  ##   ####   ##    #####    #####    **
 **   ##     ##  ##   ##  ##  ##      ## ##   ##      ##   ##   ##  ##   ##   **
 **   ##  ## ##  ##   ##  ##  ##      ####     ###    ##   ######   ######    **
 **    ##  ###   ##   ##  ##  ##      ## ##      ##   ##   ##       ##        **
 **     #######   #####   ##   #####  ##  ##  ####    ##    #####   ##        **
 **           ##                                                    ##        **
 **                                                                           **
 **                                                ... make the atoms dance   **
 **                                                                           **
 **            Copyright (C) by CP2K developers group (2000 - 2018)           **
 **                                                                           **
 *******************************************************************************

 DFT| Spin unrestricted (spin-polarized) Kohn-Sham calculation               UKS
 DFT| Multiplicity                                                             1
 DFT| Number of spin states                                                    2
 DFT| Charge                                                                   0
 DFT| Self-interaction correction (SIC)                                       NO
 DFT| Cutoffs: density                                              1.000000E-10
 DFT|          gradient                                             1.000000E-10
 DFT|          tau                                                  1.000000E-10
 DFT|          cutoff_smoothing_range                               0.000000E+00
 DFT| XC density smoothing                                                  NONE
 DFT| XC derivatives                                                          PW
 FUNCTIONAL| ROUTINE=NEW
 FUNCTIONAL| PBE:
 FUNCTIONAL| J.P.Perdew, K.Burke, M.Ernzerhof, Phys. Rev. Letter, vol. 77, n 18,
 FUNCTIONAL|  pp. 3865-3868, (1996){spin polarized}                             
 vdW POTENTIAL|                                                   Pair Potential
 vdW POTENTIAL|          DFT-D3 (Version 3.1)
 vdW POTENTIAL|          Potential Form: S. Grimme et al, JCP 132: 154104 (2010)
 vdW POTENTIAL|          Zero Damping
 vdW POTENTIAL|          Cutoff Radius [Bohr]:                             18.90
 vdW POTENTIAL|          s6 Scaling Factor:                               1.0000
 vdW POTENTIAL|          sr6 Scaling Factor:                              1.2170
 vdW POTENTIAL|          s8 Scaling Factor:                               0.7220
 vdW POTENTIAL|          Cutoff for CN calculation:                   0.1000E-05

 QS| Method:                                                                 GPW
 QS| Density plane wave grid type                        NON-SPHERICAL FULLSPACE
 QS| Number of grid levels:                                                    5
 QS| Density cutoff [a.u.]:                                                600.0
 QS| Multi grid cutoff [a.u.]: 1) grid level                               600.0
 QS|                           2) grid level                               200.0
 QS|                           3) grid level                                66.7
 QS|                           4) grid level                                22.2
 QS|                           5) grid level                                 7.4
 QS| Grid level progression factor:                                          3.0
 QS| Relative density cutoff [a.u.]:                                        20.0
 QS| Consistent realspace mapping and integration 
 QS| Interaction thresholds: eps_pgf_orb:                                1.0E-07
 QS|                         eps_filter_matrix:                          0.0E+00
 QS|                         eps_core_charge:                            1.0E-16
 QS|                         eps_rho_gspace:                             1.0E-14
 QS|                         eps_rho_rspace:                             1.0E-14
 QS|                         eps_gvg_rspace:                             1.0E-07
 QS|                         eps_ppl:                                    1.0E-02
 QS|                         eps_ppnl:                                   1.0E-09


 ATOMIC KIND INFORMATION

  1. Atomic kind: N                                     Number of atoms:     100

     Orbital Basis Set                                        DZVP-MOLOPT-SR-GTH

       Number of orbital shell sets:                                           1
       Number of orbital shells:                                               5
       Number of primitive Cartesian functions:                                5
       Number of Cartesian basis functions:                                   14
       Number of spherical basis functions:                                   13
       Norm type:                                                              2

       Normalised Cartesian orbitals:

                        Set   Shell   Orbital            Exponent    Coefficient

                          1       1    2s                7.341988       0.360561
                                                         2.542637       0.139177
                                                         0.888575      -0.289383
                                                         0.333802      -0.182244
                                                         0.112012      -0.019197

                          1       2    3s                7.341988       0.282000
                                                         2.542637       0.177875
                                                         0.888575      -0.278381
                                                         0.333802       0.008577
                                                         0.112012       0.154176

                          1       3    3px               7.341988      -1.188719
                                                         2.542637      -0.973969
                                                         0.888575      -0.501079
                                                         0.333802      -0.144894
                                                         0.112012      -0.013986
                          1       3    3py               7.341988      -1.188719
                                                         2.542637      -0.973969
                                                         0.888575      -0.501079
                                                         0.333802      -0.144894
                                                         0.112012      -0.013986
                          1       3    3pz               7.341988      -1.188719
                                                         2.542637      -0.973969
                                                         0.888575      -0.501079
                                                         0.333802      -0.144894
                                                         0.112012      -0.013986

                          1       4    4px               7.341988      -0.094798
                                                         2.542637       0.050069
                                                         0.888575      -0.114797
                                                         0.333802       0.144793
                                                         0.112012       0.066710
                          1       4    4py               7.341988      -0.094798
                                                         2.542637       0.050069
                                                         0.888575      -0.114797
                                                         0.333802       0.144793
                                                         0.112012       0.066710
                          1       4    4pz               7.341988      -0.094798
                                                         2.542637       0.050069
                                                         0.888575      -0.114797
                                                         0.333802       0.144793
                                                         0.112012       0.066710

                          1       5    4dx2              7.341988       1.354688
                                                         2.542637       0.690378
                                                         0.888575       0.855359
                                                         0.333802       0.091746
                                                         0.112012       0.001253
                          1       5    4dxy              7.341988       2.346389
                                                         2.542637       1.195770
                                                         0.888575       1.481524
                                                         0.333802       0.158910
                                                         0.112012       0.002169
                          1       5    4dxz              7.341988       2.346389
                                                         2.542637       1.195770
                                                         0.888575       1.481524
                                                         0.333802       0.158910
                                                         0.112012       0.002169
                          1       5    4dy2              7.341988       1.354688
                                                         2.542637       0.690378
                                                         0.888575       0.855359
                                                         0.333802       0.091746
                                                         0.112012       0.001253
                          1       5    4dyz              7.341988       2.346389
                                                         2.542637       1.195770
                                                         0.888575       1.481524
                                                         0.333802       0.158910
                                                         0.112012       0.002169
                          1       5    4dz2              7.341988       1.354688
                                                         2.542637       0.690378
                                                         0.888575       0.855359
                                                         0.333802       0.091746
                                                         0.112012       0.001253

     GTH Potential information for                                    GTH-PBE-q5

       Description:                       Goedecker-Teter-Hutter pseudopotential
                                           Goedecker et al., PRB 54, 1703 (1996)
                                          Hartwigsen et al., PRB 58, 3641 (1998)
                                                      Krack, TCA 114, 145 (2005)

       Gaussian exponent of the core charge distribution:               6.208322
       Electronic configuration (s p d ...):                               2   3

       Parameters of the local part of the GTH pseudopotential:

                          rloc        C1          C2          C3          C4
                        0.283791  -12.415226    1.868096

       Parameters of the non-local part of the GTH pseudopotential:

                   l      r(l)      h(i,j,l)

                   0    0.255405   13.630263
                   1    0.245495

  2. Atomic kind: Ga                                    Number of atoms:     100

     Orbital Basis Set                                        DZVP-MOLOPT-SR-GTH

       Number of orbital shell sets:                                           1
       Number of orbital shells:                                               7
       Number of primitive Cartesian functions:                                6
       Number of Cartesian basis functions:                                   30
       Number of spherical basis functions:                                   25
       Norm type:                                                              2

       Normalised Cartesian orbitals:

                        Set   Shell   Orbital            Exponent    Coefficient

                          1       1    2s                7.066654       0.013136
                                                         3.428369      -0.094392
                                                         1.430064       0.265435
                                                         0.571611       0.056465
                                                         0.232197      -0.192187
                                                         0.076562      -0.044987

                          1       2    3s                7.066654      -0.098564
                                                         3.428369       0.010390
                                                         1.430064       0.351249
                                                         0.571611       0.182615
                                                         0.232197      -0.425358
                                                         0.076562       0.190349

                          1       3    3px               7.066654       0.002364
                                                         3.428369       0.019222
                                                         1.430064       0.250132
                                                         0.571611      -0.058486
                                                         0.232197      -0.159451
                                                         0.076562      -0.020696
                          1       3    3py               7.066654       0.002364
                                                         3.428369       0.019222
                                                         1.430064       0.250132
                                                         0.571611      -0.058486
                                                         0.232197      -0.159451
                                                         0.076562      -0.020696
                          1       3    3pz               7.066654       0.002364
                                                         3.428369       0.019222
                                                         1.430064       0.250132
                                                         0.571611      -0.058486
                                                         0.232197      -0.159451
                                                         0.076562      -0.020696

                          1       4    4px               7.066654       0.492448
                                                         3.428369      -0.614736
                                                         1.430064      -0.191654
                                                         0.571611       0.037801
                                                         0.232197       0.302315
                                                         0.076562      -0.071336
                          1       4    4py               7.066654       0.492448
                                                         3.428369      -0.614736
                                                         1.430064      -0.191654
                                                         0.571611       0.037801
                                                         0.232197       0.302315
                                                         0.076562      -0.071336
                          1       4    4pz               7.066654       0.492448
                                                         3.428369      -0.614736
                                                         1.430064      -0.191654
                                                         0.571611       0.037801
                                                         0.232197       0.302315
                                                         0.076562      -0.071336

                          1       5    4dx2              7.066654     -15.264855
                                                         3.428369      -5.345726
                                                         1.430064      -1.022732
                                                         0.571611      -0.123148
                                                         0.232197      -0.006983
                                                         0.076562      -0.000022
                          1       5    4dxy              7.066654     -26.439504
                                                         3.428369      -9.259069
                                                         1.430064      -1.771423
                                                         0.571611      -0.213299
                                                         0.232197      -0.012094
                                                         0.076562      -0.000037
                          1       5    4dxz              7.066654     -26.439504
                                                         3.428369      -9.259069
                                                         1.430064      -1.771423
                                                         0.571611      -0.213299
                                                         0.232197      -0.012094
                                                         0.076562      -0.000037
                          1       5    4dy2              7.066654     -15.264855
                                                         3.428369      -5.345726
                                                         1.430064      -1.022732
                                                         0.571611      -0.123148
                                                         0.232197      -0.006983
                                                         0.076562      -0.000022
                          1       5    4dyz              7.066654     -26.439504
                                                         3.428369      -9.259069
                                                         1.430064      -1.771423
                                                         0.571611      -0.213299
                                                         0.232197      -0.012094
                                                         0.076562      -0.000037
                          1       5    4dz2              7.066654     -15.264855
                                                         3.428369      -5.345726
                                                         1.430064      -1.022732
                                                         0.571611      -0.123148
                                                         0.232197      -0.006983
                                                         0.076562      -0.000022

                          1       6    5dx2              7.066654      -5.739265
                                                         3.428369      -2.129289
                                                         1.430064      -0.700423
                                                         0.571611       0.161606
                                                         0.232197       0.043513
                                                         0.076562       0.011205
                          1       6    5dxy              7.066654      -9.940698
                                                         3.428369      -3.688037
                                                         1.430064      -1.213168
                                                         0.571611       0.279909
                                                         0.232197       0.075368
                                                         0.076562       0.019407
                          1       6    5dxz              7.066654      -9.940698
                                                         3.428369      -3.688037
                                                         1.430064      -1.213168
                                                         0.571611       0.279909
                                                         0.232197       0.075368
                                                         0.076562       0.019407
                          1       6    5dy2              7.066654      -5.739265
                                                         3.428369      -2.129289
                                                         1.430064      -0.700423
                                                         0.571611       0.161606
                                                         0.232197       0.043513
                                                         0.076562       0.011205
                          1       6    5dyz              7.066654      -9.940698
                                                         3.428369      -3.688037
                                                         1.430064      -1.213168
                                                         0.571611       0.279909
                                                         0.232197       0.075368
                                                         0.076562       0.019407
                          1       6    5dz2              7.066654      -5.739265
                                                         3.428369      -2.129289
                                                         1.430064      -0.700423
                                                         0.571611       0.161606
                                                         0.232197       0.043513
                                                         0.076562       0.011205

                          1       7    5fx3              7.066654       0.705879
                                                         3.428369      -0.273976
                                                         1.430064       0.113667
                                                         0.571611       0.132480
                                                         0.232197       0.012437
                                                         0.076562       0.003241
                          1       7    5fx2y             7.066654       1.578393
                                                         3.428369      -0.612629
                                                         1.430064       0.254167
                                                         0.571611       0.296234
                                                         0.232197       0.027811
                                                         0.076562       0.007246
                          1       7    5fx2z             7.066654       1.578393
                                                         3.428369      -0.612629
                                                         1.430064       0.254167
                                                         0.571611       0.296234
                                                         0.232197       0.027811
                                                         0.076562       0.007246
                          1       7    5fxy2             7.066654       1.578393
                                                         3.428369      -0.612629
                                                         1.430064       0.254167
                                                         0.571611       0.296234
                                                         0.232197       0.027811
                                                         0.076562       0.007246
                          1       7    5fxyz             7.066654       2.733856
                                                         3.428369      -1.061105
                                                         1.430064       0.440230
                                                         0.571611       0.513092
                                                         0.232197       0.048170
                                                         0.076562       0.012551
                          1       7    5fxz2             7.066654       1.578393
                                                         3.428369      -0.612629
                                                         1.430064       0.254167
                                                         0.571611       0.296234
                                                         0.232197       0.027811
                                                         0.076562       0.007246
                          1       7    5fy3              7.066654       0.705879
                                                         3.428369      -0.273976
                                                         1.430064       0.113667
                                                         0.571611       0.132480
                                                         0.232197       0.012437
                                                         0.076562       0.003241
                          1       7    5fy2z             7.066654       1.578393
                                                         3.428369      -0.612629
                                                         1.430064       0.254167
                                                         0.571611       0.296234
                                                         0.232197       0.027811
                                                         0.076562       0.007246
                          1       7    5fyz2             7.066654       1.578393
                                                         3.428369      -0.612629
                                                         1.430064       0.254167
                                                         0.571611       0.296234
                                                         0.232197       0.027811
                                                         0.076562       0.007246
                          1       7    5fz3              7.066654       0.705879
                                                         3.428369      -0.273976
                                                         1.430064       0.113667
                                                         0.571611       0.132480
                                                         0.232197       0.012437
                                                         0.076562       0.003241

     GTH Potential information for                                   GTH-PBE-q13

       Description:                       Goedecker-Teter-Hutter pseudopotential
                                           Goedecker et al., PRB 54, 1703 (1996)
                                          Hartwigsen et al., PRB 58, 3641 (1998)
                                                      Krack, TCA 114, 145 (2005)

       Gaussian exponent of the core charge distribution:               2.082466
       Electronic configuration (s p d ...):                           2   1  10

       Parameters of the local part of the GTH pseudopotential:

                          rloc        C1          C2          C3          C4
                        0.490000

       Parameters of the non-local part of the GTH pseudopotential:

                   l      r(l)      h(i,j,l)

                   0    0.416777   10.475690   -4.921768    0.870706
                                   -4.921768    7.770178   -2.248152
                                    0.870706   -2.248152    1.784415
                   1    0.569627    1.777985    0.195860
                                    0.195860   -0.231744
                   2    0.238126  -16.248680

  3. Atomic kind: O                                     Number of atoms:       2

     Orbital Basis Set                                     DZVP-MOLOPT-SR-GTH-q6

       Number of orbital shell sets:                                           1
       Number of orbital shells:                                               5
       Number of primitive Cartesian functions:                                5
       Number of Cartesian basis functions:                                   14
       Number of spherical basis functions:                                   13
       Norm type:                                                              2

       Normalised Cartesian orbitals:

                        Set   Shell   Orbital            Exponent    Coefficient

                          1       1    2s               10.389228       0.396646
                                                         3.849621       0.208811
                                                         1.388401      -0.301641
                                                         0.496955      -0.274061
                                                         0.162492      -0.033677

                          1       2    3s               10.389228       0.303673
                                                         3.849621       0.240943
                                                         1.388401      -0.313066
                                                         0.496955      -0.043055
                                                         0.162492       0.213991

                          1       3    3px              10.389228      -1.530415
                                                         3.849621      -1.371928
                                                         1.388401      -0.761951
                                                         0.496955      -0.253695
                                                         0.162492      -0.035541
                          1       3    3py              10.389228      -1.530415
                                                         3.849621      -1.371928
                                                         1.388401      -0.761951
                                                         0.496955      -0.253695
                                                         0.162492      -0.035541
                          1       3    3pz              10.389228      -1.530415
                                                         3.849621      -1.371928
                                                         1.388401      -0.761951
                                                         0.496955      -0.253695
                                                         0.162492      -0.035541

                          1       4    4px              10.389228      -0.565392
                                                         3.849621      -0.038231
                                                         1.388401      -0.382373
                                                         0.496955       0.179070
                                                         0.162492       0.122714
                          1       4    4py              10.389228      -0.565392
                                                         3.849621      -0.038231
                                                         1.388401      -0.382373
                                                         0.496955       0.179070
                                                         0.162492       0.122714
                          1       4    4pz              10.389228      -0.565392
                                                         3.849621      -0.038231
                                                         1.388401      -0.382373
                                                         0.496955       0.179070
                                                         0.162492       0.122714

                          1       5    4dx2             10.389228       1.867377
                                                         3.849621       0.670994
                                                         1.388401       1.353441
                                                         0.496955       0.273538
                                                         0.162492       0.006620
                          1       5    4dxy             10.389228       3.234392
                                                         3.849621       1.162195
                                                         1.388401       2.344229
                                                         0.496955       0.473781
                                                         0.162492       0.011466
                          1       5    4dxz             10.389228       3.234392
                                                         3.849621       1.162195
                                                         1.388401       2.344229
                                                         0.496955       0.473781
                                                         0.162492       0.011466
                          1       5    4dy2             10.389228       1.867377
                                                         3.849621       0.670994
                                                         1.388401       1.353441
                                                         0.496955       0.273538
                                                         0.162492       0.006620
                          1       5    4dyz             10.389228       3.234392
                                                         3.849621       1.162195
                                                         1.388401       2.344229
                                                         0.496955       0.473781
                                                         0.162492       0.011466
                          1       5    4dz2             10.389228       1.867377
                                                         3.849621       0.670994
                                                         1.388401       1.353441
                                                         0.496955       0.273538
                                                         0.162492       0.006620

     GTH Potential information for                                    GTH-PBE-q6

       Description:                       Goedecker-Teter-Hutter pseudopotential
                                           Goedecker et al., PRB 54, 1703 (1996)
                                          Hartwigsen et al., PRB 58, 3641 (1998)
                                                      Krack, TCA 114, 145 (2005)

       Gaussian exponent of the core charge distribution:               8.360253
       Electronic configuration (s p d ...):                               2   4

       Parameters of the local part of the GTH pseudopotential:

                          rloc        C1          C2          C3          C4
                        0.244554  -16.667215    2.487311

       Parameters of the non-local part of the GTH pseudopotential:

                   l      r(l)      h(i,j,l)

                   0    0.220956   18.337458
                   1    0.211332

  4. Atomic kind: H                                     Number of atoms:       8

     Orbital Basis Set                                     DZVP-MOLOPT-SR-GTH-q1

       Number of orbital shell sets:                                           1
       Number of orbital shells:                                               3
       Number of primitive Cartesian functions:                                5
       Number of Cartesian basis functions:                                    5
       Number of spherical basis functions:                                    5
       Norm type:                                                              2

       Normalised Cartesian orbitals:

                        Set   Shell   Orbital            Exponent    Coefficient

                          1       1    2s               10.068468      -0.133023
                                                         2.680223      -0.177618
                                                         0.791502      -0.258419
                                                         0.239116      -0.107525
                                                         0.082193      -0.014019

                          1       2    3s               10.068468       0.344673
                                                         2.680223       1.819821
                                                         0.791502      -0.999069
                                                         0.239116       0.017430
                                                         0.082193       0.082660

                          1       3    3px              10.068468       0.155326
                                                         2.680223       0.367157
                                                         0.791502       0.311480
                                                         0.239116       0.080105
                                                         0.082193       0.033440
                          1       3    3py              10.068468       0.155326
                                                         2.680223       0.367157
                                                         0.791502       0.311480
                                                         0.239116       0.080105
                                                         0.082193       0.033440
                          1       3    3pz              10.068468       0.155326
                                                         2.680223       0.367157
                                                         0.791502       0.311480
                                                         0.239116       0.080105
                                                         0.082193       0.033440

     GTH Potential information for                                    GTH-PBE-q1

       Description:                       Goedecker-Teter-Hutter pseudopotential
                                           Goedecker et al., PRB 54, 1703 (1996)
                                          Hartwigsen et al., PRB 58, 3641 (1998)
                                                      Krack, TCA 114, 145 (2005)

       Gaussian exponent of the core charge distribution:              12.500000
       Electronic configuration (s p d ...):                                   1

       Parameters of the local part of the GTH pseudopotential:

                          rloc        C1          C2          C3          C4
                        0.200000   -4.178900    0.724463

  5. Atomic kind: C                                     Number of atoms:       2

     Orbital Basis Set                                     DZVP-MOLOPT-SR-GTH-q4

       Number of orbital shell sets:                                           1
       Number of orbital shells:                                               5
       Number of primitive Cartesian functions:                                5
       Number of Cartesian basis functions:                                   14
       Number of spherical basis functions:                                   13
       Norm type:                                                              2

       Normalised Cartesian orbitals:

                        Set   Shell   Orbital            Exponent    Coefficient

                          1       1    2s                5.605331       0.322515
                                                         2.113016       0.213043
                                                         0.769911      -0.209686
                                                         0.348157      -0.219794
                                                         0.128212      -0.022789

                          1       2    3s                5.605331       0.552234
                                                         2.113016       0.082072
                                                         0.769911       0.007843
                                                         0.348157       0.136893
                                                         0.128212       0.074283

                          1       3    3px               5.605331      -0.703879
                                                         2.113016      -0.642521
                                                         0.769911      -0.374851
                                                         0.348157      -0.139743
                                                         0.128212      -0.027849
                          1       3    3py               5.605331      -0.703879
                                                         2.113016      -0.642521
                                                         0.769911      -0.374851
                                                         0.348157      -0.139743
                                                         0.128212      -0.027849
                          1       3    3pz               5.605331      -0.703879
                                                         2.113016      -0.642521
                                                         0.769911      -0.374851
                                                         0.348157      -0.139743
                                                         0.128212      -0.027849

                          1       4    4px               5.605331      -0.480376
                                                         2.113016      -0.552894
                                                         0.769911      -0.316145
                                                         0.348157       0.210505
                                                         0.128212       0.076095
                          1       4    4py               5.605331      -0.480376
                                                         2.113016      -0.552894
                                                         0.769911      -0.316145
                                                         0.348157       0.210505
                                                         0.128212       0.076095
                          1       4    4pz               5.605331      -0.480376
                                                         2.113016      -0.552894
                                                         0.769911      -0.316145
                                                         0.348157       0.210505
                                                         0.128212       0.076095

                          1       5    4dx2              5.605331       0.640026
                                                         2.113016       0.274300
                                                         0.769911       0.446711
                                                         0.348157       0.028674
                                                         0.128212       0.029790
                          1       5    4dxy              5.605331       1.108557
                                                         2.113016       0.475102
                                                         0.769911       0.773726
                                                         0.348157       0.049666
                                                         0.128212       0.051599
                          1       5    4dxz              5.605331       1.108557
                                                         2.113016       0.475102
                                                         0.769911       0.773726
                                                         0.348157       0.049666
                                                         0.128212       0.051599
                          1       5    4dy2              5.605331       0.640026
                                                         2.113016       0.274300
                                                         0.769911       0.446711
                                                         0.348157       0.028674
                                                         0.128212       0.029790
                          1       5    4dyz              5.605331       1.108557
                                                         2.113016       0.475102
                                                         0.769911       0.773726
                                                         0.348157       0.049666
                                                         0.128212       0.051599
                          1       5    4dz2              5.605331       0.640026
                                                         2.113016       0.274300
                                                         0.769911       0.446711
                                                         0.348157       0.028674
                                                         0.128212       0.029790

     GTH Potential information for                                    GTH-PBE-q4

       Description:                       Goedecker-Teter-Hutter pseudopotential
                                           Goedecker et al., PRB 54, 1703 (1996)
                                          Hartwigsen et al., PRB 58, 3641 (1998)
                                                      Krack, TCA 114, 145 (2005)

       Gaussian exponent of the core charge distribution:               4.364419
       Electronic configuration (s p d ...):                               2   2

       Parameters of the local part of the GTH pseudopotential:

                          rloc        C1          C2          C3          C4
                        0.338471   -8.803674    1.339211

       Parameters of the non-local part of the GTH pseudopotential:

                   l      r(l)      h(i,j,l)

                   0    0.302576    9.622487
                   1    0.291507


 MOLECULE KIND INFORMATION


 All atoms are their own molecule, skipping detailed information


 TOTAL NUMBERS AND MAXIMUM NUMBERS

  Total number of            - Atomic kinds:                                   5
                             - Atoms:                                        212
                             - Shell sets:                                   212
                             - Shells:                                      1244
                             - Primitive Cartesian functions:               1160
                             - Cartesian basis functions:                   4496
                             - Spherical basis functions:                   3892

  Maximum angular momentum of- Orbital basis functions:                        3
                             - Local part of the GTH pseudopotential:          2
                             - Non-local part of the GTH pseudopotential:      4


 MODULE QUICKSTEP:  ATOMIC COORDINATES IN angstrom

  Atom  Kind  Element       X           Y           Z          Z(eff)       Mass

       1     1 N    7    0.001297    2.053923    2.502566      5.00      14.0067
       2     2 Ga  31   -0.002798    0.093533    2.854427     13.00      69.7230
       3     1 N    7   -0.005842    0.059294    5.008318      5.00      14.0067
       4     2 Ga  31   -0.004152    1.891198    5.798751     13.00      69.7230
       5     1 N    7   -0.006376    1.900130    7.793992      5.00      14.0067
       6     2 Ga  31   -0.004725    0.055935    8.441513     13.00      69.7230
       7     1 N    7   -0.004642    0.055066   10.412855      5.00      14.0067
       8     2 Ga  31   -0.004963    1.893957   11.072750     13.00      69.7230
       9     1 N    7   -0.005507    1.875143   13.061195      5.00      14.0067
      10     2 Ga  31   -0.006993    0.057249   13.875646     13.00      69.7230
      11     1 N    7   -0.006271    0.057062   16.066473      5.00      14.0067
      12     2 Ga  31   -0.005863    2.106601   16.488093     13.00      69.7230
      13     2 Ga  31    0.031152    3.735683    1.367579     13.00      69.7230
      14     1 N    7   -1.472688    4.635041    2.471825      5.00      14.0067
      15     2 Ga  31   -1.680496    2.796370    3.263387     13.00      69.7230
      16     1 N    7   -1.614674    2.844191    5.240428      5.00      14.0067
      17     2 Ga  31   -1.640701    4.706388    5.811015     13.00      69.7230
      18     1 N    7   -1.624422    4.704943    7.798937      5.00      14.0067
      19     2 Ga  31   -1.602474    2.845087    8.440789     13.00      69.7230
      20     1 N    7   -1.602258    2.847732   10.429379      5.00      14.0067
      21     2 Ga  31   -1.630486    4.706321   11.075786     13.00      69.7230
      22     1 N    7   -1.646171    4.716390   13.063081      5.00      14.0067
      23     2 Ga  31   -1.601823    2.847220   13.622421     13.00      69.7230
      24     1 N    7   -1.628519    2.832572   15.578691      5.00      14.0067
      25     2 Ga  31   -1.445942    4.600834   16.488337     13.00      69.7230
      26     1 N    7   -0.000188    3.772548   17.635096      5.00      14.0067
      27     1 N    7   -3.211967    7.602853    2.504045      5.00      14.0067
      28     2 Ga  31   -3.196143    5.603462    2.851710     13.00      69.7230
      29     1 N    7   -3.216150    5.624236    5.006317      5.00      14.0067
      30     2 Ga  31   -3.228235    7.446954    5.799801     13.00      69.7230
      31     1 N    7   -3.219946    7.472962    7.787390      5.00      14.0067
      32     2 Ga  31   -3.223031    5.625963    8.447156     13.00      69.7230
      33     1 N    7   -3.221878    5.627710   10.415836      5.00      14.0067
      34     2 Ga  31   -3.223393    7.465979   11.073974     13.00      69.7230
      35     1 N    7   -3.221581    7.446036   13.063805      5.00      14.0067
      36     2 Ga  31   -3.221481    5.623920   13.877170     13.00      69.7230
      37     1 N    7   -3.221323    5.625760   16.067033      5.00      14.0067
      38     2 Ga  31   -3.221559    7.666055   16.475850     13.00      69.7230
      39     2 Ga  31   -3.248829    9.360786    1.438167     13.00      69.7230
      40     1 N    7   -4.726380   10.211672    2.514198      5.00      14.0067
      41     2 Ga  31   -4.934337    8.352682    3.266870     13.00      69.7230
      42     1 N    7   -4.830194    8.408879    5.230489      5.00      14.0067
      43     2 Ga  31   -4.855238   10.284721    5.789285     13.00      69.7230
      44     1 N    7   -4.837739   10.273729    7.783602      5.00      14.0067
      45     2 Ga  31   -4.822719    8.417731    8.432329     13.00      69.7230
      46     1 N    7   -4.817970    8.418271   10.422849      5.00      14.0067
      47     2 Ga  31   -4.844920   10.276830   11.071067     13.00      69.7230
      48     1 N    7   -4.861566   10.287049   13.062008      5.00      14.0067
      49     2 Ga  31   -4.818803    8.418191   13.622883     13.00      69.7230
      50     1 N    7   -4.849224    8.400916   15.582165      5.00      14.0067
      51     2 Ga  31   -4.672297   10.178561   16.475409     13.00      69.7230
      52     1 N    7   -3.221786    9.341248   17.592078      5.00      14.0067
      53     1 N    7    3.195349    1.929657    2.591234      5.00      14.0067
      54     2 Ga  31    3.206445    0.184291    3.272146     13.00      69.7230
      55     1 N    7    3.214070    0.059666    5.235478      5.00      14.0067
      56     2 Ga  31    3.209710    1.922792    5.872415     13.00      69.7230
      57     1 N    7    3.213391    1.913312    7.844721      5.00      14.0067
      58     2 Ga  31    3.208986    0.047218    8.437237     13.00      69.7230
      59     1 N    7    3.210925    0.042201   10.426489      5.00      14.0067
      60     2 Ga  31    3.210864    1.911626   11.030536     13.00      69.7230
      61     1 N    7    3.211212    1.912078   12.996742      5.00      14.0067
      62     2 Ga  31    3.210841    0.043922   13.622184     13.00      69.7230
      63     1 N    7    3.210812    0.079193   15.581629      5.00      14.0067
      64     2 Ga  31    3.211085    1.917455   15.860762     13.00      69.7230
      65     1 N    7    1.471142    4.637881    2.513430      5.00      14.0067
      66     2 Ga  31    1.685126    2.812250    3.294677     13.00      69.7230
      67     1 N    7    1.603416    2.846125    5.257053      5.00      14.0067
      68     2 Ga  31    1.653744    4.720802    5.824440     13.00      69.7230
      69     1 N    7    1.601687    4.700026    7.823220      5.00      14.0067
      70     2 Ga  31    1.591803    2.844451    8.444738     13.00      69.7230
      71     1 N    7    1.592104    2.844480   10.433706      5.00      14.0067
      72     2 Ga  31    1.619852    4.706167   11.072575     13.00      69.7230
      73     1 N    7    1.635102    4.716447   13.062776      5.00      14.0067
      74     2 Ga  31    1.591240    2.847401   13.622641     13.00      69.7230
      75     1 N    7    1.616568    2.831200   15.580129      5.00      14.0067
      76     2 Ga  31    1.439518    4.603984   16.488280     13.00      69.7230
      77     1 N    7   -0.004489    7.471431    2.688941      5.00      14.0067
      78     2 Ga  31    0.008851    5.618925    3.340316     13.00      69.7230
      79     1 N    7   -0.007084    5.639812    5.265636      5.00      14.0067
      80     2 Ga  31    0.001611    7.478514    5.907871     13.00      69.7230
      81     1 N    7   -0.003687    7.485966    7.861212      5.00      14.0067
      82     2 Ga  31   -0.006644    5.611379    8.455744     13.00      69.7230
      83     1 N    7   -0.008150    5.615399   10.439571      5.00      14.0067
      84     2 Ga  31   -0.006563    7.484004   11.035307     13.00      69.7230
      85     1 N    7   -0.005877    7.484184   12.999734      5.00      14.0067
      86     2 Ga  31   -0.005203    5.612788   13.623653     13.00      69.7230
      87     1 N    7   -0.007217    5.643838   15.580860      5.00      14.0067
      88     2 Ga  31   -0.001481    7.481596   15.861384     13.00      69.7230
      89     1 N    7   -1.711954   10.205394    2.510594      5.00      14.0067
      90     2 Ga  31   -1.595341    8.400702    3.324979     13.00      69.7230
      91     1 N    7   -1.599008    8.405944    5.249672      5.00      14.0067
      92     2 Ga  31   -1.589383   10.292562    5.805886     13.00      69.7230
      93     1 N    7   -1.603883   10.272919    7.791422      5.00      14.0067
      94     2 Ga  31   -1.625780    8.419010    8.447099     13.00      69.7230
      95     1 N    7   -1.625694    8.418914   10.431508      5.00      14.0067
      96     2 Ga  31   -1.598256   10.278953   11.074211     13.00      69.7230
      97     1 N    7   -1.580319   10.287817   13.063912      5.00      14.0067
      98     2 Ga  31   -1.624413    8.418464   13.623548     13.00      69.7230
      99     1 N    7   -1.593522    8.400832   15.582765      5.00      14.0067
     100     2 Ga  31   -1.770912   10.178476   16.475629     13.00      69.7230
     101     1 N    7    6.427513    2.037340    2.532608      5.00      14.0067
     102     2 Ga  31    6.429564    0.064314    2.884006     13.00      69.7230
     103     1 N    7    6.429291    0.056171    5.017231      5.00      14.0067
     104     2 Ga  31    6.421371    1.895095    5.797664     13.00      69.7230
     105     1 N    7    6.426079    1.900791    7.789755      5.00      14.0067
     106     2 Ga  31    6.427637    0.057925    8.445954     13.00      69.7230
     107     1 N    7    6.427205    0.055882   10.414762      5.00      14.0067
     108     2 Ga  31    6.428304    1.895624   11.073323     13.00      69.7230
     109     1 N    7    6.428180    1.875371   13.061275      5.00      14.0067
     110     2 Ga  31    6.429582    0.057837   13.877635     13.00      69.7230
     111     1 N    7    6.428391    0.057186   16.067096      5.00      14.0067
     112     2 Ga  31    6.427910    2.106937   16.488429     13.00      69.7230
     113     2 Ga  31    6.467830    3.741807    1.489324     13.00      69.7230
     114     1 N    7    4.924780    4.637255    2.414280      5.00      14.0067
     115     2 Ga  31    4.698443    2.813120    3.273397     13.00      69.7230
     116     1 N    7    4.818309    2.850039    5.232622      5.00      14.0067
     117     2 Ga  31    4.775873    4.724814    5.816295     13.00      69.7230
     118     1 N    7    4.821113    4.697740    7.817296      5.00      14.0067
     119     2 Ga  31    4.830300    2.845965    8.447869     13.00      69.7230
     120     1 N    7    4.830686    2.844877   10.434756      5.00      14.0067
     121     2 Ga  31    4.804328    4.707618   11.071171     13.00      69.7230
     122     1 N    7    4.788065    4.716608   13.061628      5.00      14.0067
     123     2 Ga  31    4.831180    2.847613   13.622241     13.00      69.7230
     124     1 N    7    4.805590    2.831263   15.579786      5.00      14.0067
     125     2 Ga  31    4.982437    4.604215   16.487920     13.00      69.7230
     126     1 N    7    6.422013    3.773110   17.634834      5.00      14.0067
     127     1 N    7    3.205206    7.601295    2.411040      5.00      14.0067
     128     1 N    7    3.212599    5.630511    5.145826      5.00      14.0067
     129     2 Ga  31    3.219811    7.427013    5.827376     13.00      69.7230
     130     1 N    7    3.210202    7.487576    7.820802      5.00      14.0067
     131     2 Ga  31    3.212344    5.626078    8.443235     13.00      69.7230
     132     1 N    7    3.211639    5.627414   10.419206      5.00      14.0067
     133     2 Ga  31    3.213194    7.465079   11.073848     13.00      69.7230
     134     1 N    7    3.211667    7.447095   13.063198      5.00      14.0067
     135     2 Ga  31    3.211710    5.626347   13.875114     13.00      69.7230
     136     1 N    7    3.211134    5.627037   16.066286      5.00      14.0067
     137     2 Ga  31    3.211228    7.673239   16.488888     13.00      69.7230
     138     2 Ga  31    3.237245    9.390413    1.443177     13.00      69.7230
     139     1 N    7    1.708287   10.194881    2.516078      5.00      14.0067
     140     2 Ga  31    1.603969    8.368474    3.314865     13.00      69.7230
     141     1 N    7    1.598791    8.401760    5.239508      5.00      14.0067
     142     2 Ga  31    1.580493   10.283612    5.805042     13.00      69.7230
     143     1 N    7    1.592201   10.272350    7.791466      5.00      14.0067
     144     2 Ga  31    1.615774    8.421917    8.458758     13.00      69.7230
     145     1 N    7    1.612053    8.420590   10.440395      5.00      14.0067
     146     2 Ga  31    1.588018   10.280031   11.076381     13.00      69.7230
     147     1 N    7    1.571091   10.288382   13.063114      5.00      14.0067
     148     2 Ga  31    1.614955    8.419109   13.624060     13.00      69.7230
     149     1 N    7    1.587115    8.405518   15.581049      5.00      14.0067
     150     2 Ga  31    1.771710   10.172853   16.489239     13.00      69.7230
     151     1 N    7    3.211524    9.335143   17.635997      5.00      14.0067
     152     1 N    7    9.653572    1.917419    2.606209      5.00      14.0067
     153     2 Ga  31    9.652251    0.177638    3.289102     13.00      69.7230
     154     1 N    7    9.642367    0.055566    5.246124      5.00      14.0067
     155     2 Ga  31    9.651901    1.916250    5.875602     13.00      69.7230
     156     1 N    7    9.643639    1.912225    7.844945      5.00      14.0067
     157     2 Ga  31    9.645912    0.044270    8.436050     13.00      69.7230
     158     1 N    7    9.643431    0.042525   10.425533      5.00      14.0067
     159     2 Ga  31    9.642735    1.912769   11.025875     13.00      69.7230
     160     1 N    7    9.642860    1.912749   12.994527      5.00      14.0067
     161     2 Ga  31    9.643900    0.043413   13.623409     13.00      69.7230
     162     1 N    7    9.643599    0.074501   15.579256      5.00      14.0067
     163     2 Ga  31    9.643349    1.913323   15.855659     13.00      69.7230
     164     1 N    7    7.930319    4.634240    2.523206      5.00      14.0067
     165     2 Ga  31    8.148328    2.782321    3.299787     13.00      69.7230
     166     1 N    7    8.039143    2.839882    5.252737      5.00      14.0067
     167     2 Ga  31    8.053456    4.716157    5.791503     13.00      69.7230
     168     1 N    7    8.045667    4.706854    7.785938      5.00      14.0067
     169     2 Ga  31    8.025055    2.848385    8.433676     13.00      69.7230
     170     1 N    7    8.024065    2.848292   10.424303      5.00      14.0067
     171     2 Ga  31    8.050580    4.706563   11.073223     13.00      69.7230
     172     1 N    7    8.067913    4.716249   13.061200      5.00      14.0067
     173     2 Ga  31    8.023943    2.847908   13.622951     13.00      69.7230
     174     1 N    7    8.050796    2.832817   15.579078      5.00      14.0067
     175     2 Ga  31    7.867983    4.601162   16.488527     13.00      69.7230
     176     1 N    7    6.421969    7.479153    2.575107      5.00      14.0067
     177     2 Ga  31    6.398238    5.738197    3.266800     13.00      69.7230
     178     1 N    7    6.420912    5.623213    5.226456      5.00      14.0067
     179     2 Ga  31    6.419003    7.479212    5.860695     13.00      69.7230
     180     1 N    7    6.425405    7.483111    7.833899      5.00      14.0067
     181     2 Ga  31    6.429350    5.615923    8.443892     13.00      69.7230
     182     1 N    7    6.430370    5.616062   10.431697      5.00      14.0067
     183     2 Ga  31    6.429022    7.484069   11.030349     13.00      69.7230
     184     1 N    7    6.428218    7.483991   12.996197      5.00      14.0067
     185     2 Ga  31    6.427931    5.613436   13.622774     13.00      69.7230
     186     1 N    7    6.429485    5.643958   15.580096      5.00      14.0067
     187     2 Ga  31    6.423475    7.481552   15.861655     13.00      69.7230
     188     1 N    7    4.715507   10.207898    2.516563      5.00      14.0067
     189     2 Ga  31    4.905006    8.333520    3.263194     13.00      69.7230
     190     1 N    7    4.809217    8.409235    5.224414      5.00      14.0067
     191     2 Ga  31    4.847018   10.277633    5.791916     13.00      69.7230
     192     1 N    7    4.830470   10.273139    7.785948      5.00      14.0067
     193     2 Ga  31    4.812457    8.420719    8.446055     13.00      69.7230
     194     1 N    7    4.811570    8.419869   10.432742      5.00      14.0067
     195     2 Ga  31    4.835397   10.278285   11.073149     13.00      69.7230
     196     1 N    7    4.851240   10.287889   13.061073      5.00      14.0067
     197     2 Ga  31    4.808422    8.419152   13.623290     13.00      69.7230
     198     1 N    7    4.835229    8.405643   15.580378      5.00      14.0067
     199     2 Ga  31    4.651026   10.172875   16.488995     13.00      69.7230
     200     3 O    8    0.714444    3.855953   -0.373869      6.00      15.9994
     201     4 H    1   -0.010386    7.457573    1.662854      1.00       1.0079
     202     5 C    6    1.143327    2.593715   -0.935163      4.00      12.0107
     203     4 H    1    1.845165    2.065503   -0.267392      1.00       1.0079
     204     4 H    1    0.284695    1.935798   -1.135142      1.00       1.0079
     205     4 H    1    1.647123    2.804216   -1.889472      1.00       1.0079
     206     2 Ga  31    3.169586    5.590734    2.262246     13.00      69.7230
     207     3 O    8    2.825204    5.465050    0.133954      6.00      15.9994
     208     4 H    1    2.051211    4.830022   -0.063519      1.00       1.0079
     209     5 C    6    3.893980    5.253286   -0.809019      4.00      12.0107
     210     4 H    1    3.530958    5.425748   -1.831123      1.00       1.0079
     211     4 H    1    4.687624    5.973558   -0.575356      1.00       1.0079
     212     4 H    1    4.297406    4.231749   -0.728459      1.00       1.0079




 SCF PARAMETERS         Density guess:                                    ATOMIC
                        --------------------------------------------------------
                        max_scf:                                              80
                        max_scf_history:                                       0
                        max_diis:                                              4
                        --------------------------------------------------------
                        eps_scf:                                        5.00E-06
                        eps_scf_history:                                0.00E+00
                        eps_diis:                                       1.00E-01
                        eps_eigval:                                     1.00E-05
                        --------------------------------------------------------
                        level_shift [a.u.]:                                 0.00
                        --------------------------------------------------------
                        Outer loop SCF in use 
                        No variables optimised in outer loop
                        eps_scf                                         5.00E-06
                        max_scf                                                4
                        No outer loop optimization
                        step_size                                       5.00E-01

 PW_GRID| Information for grid number                                          1
 PW_GRID| Grid distributed over                                    80 processors
 PW_GRID| Real space group dimensions                                    80    1
 PW_GRID| the grid is blocked:                                                NO
 PW_GRID| Cutoff [a.u.]                                                    600.0
 PW_GRID| spherical cutoff:                                                   NO
 PW_GRID|   Bounds   1           -144     143                Points:         288
 PW_GRID|   Bounds   2           -144     143                Points:         288
 PW_GRID|   Bounds   3           -337     337                Points:         675
 PW_GRID| Volume element (a.u.^3)  0.5630E-03     Volume (a.u.^3)     31519.8467
 PW_GRID| Grid span                                                    FULLSPACE
 PW_GRID|   Distribution                         Average         Max         Min
 PW_GRID|   G-Vectors                           699840.0      699840      699840
 PW_GRID|   G-Rays                                2430.0        2430        2430
 PW_GRID|   Real Space Points                   699840.0      777600      583200

 PW_GRID| Information for grid number                                          2
 PW_GRID| Grid distributed over                                    80 processors
 PW_GRID| Real space group dimensions                                    80    1
 PW_GRID| the grid is blocked:                                                NO
 PW_GRID| Cutoff [a.u.]                                                    200.0
 PW_GRID| spherical cutoff:                                                   NO
 PW_GRID|   Bounds   1            -80      79                Points:         160
 PW_GRID|   Bounds   2            -80      79                Points:         160
 PW_GRID|   Bounds   3           -200     199                Points:         400
 PW_GRID| Volume element (a.u.^3)  0.3078E-02     Volume (a.u.^3)     31519.8467
 PW_GRID| Grid span                                                    FULLSPACE
 PW_GRID|   Distribution                         Average         Max         Min
 PW_GRID|   G-Vectors                           128000.0      128160      127840
 PW_GRID|   G-Rays                                 800.0         801         799
 PW_GRID|   Real Space Points                   128000.0      128000      128000

 PW_GRID| Information for grid number                                          3
 PW_GRID| Grid distributed over                                    80 processors
 PW_GRID| Real space group dimensions                                    80    1
 PW_GRID| the grid is blocked:                                                NO
 PW_GRID| Cutoff [a.u.]                                                     66.7
 PW_GRID| spherical cutoff:                                                   NO
 PW_GRID|   Bounds   1            -48      47                Points:          96
 PW_GRID|   Bounds   2            -48      47                Points:          96
 PW_GRID|   Bounds   3           -112     112                Points:         225
 PW_GRID| Volume element (a.u.^3)  0.1520E-01     Volume (a.u.^3)     31519.8467
 PW_GRID| Grid span                                                    FULLSPACE
 PW_GRID|   Distribution                         Average         Max         Min
[...]
 flops   991 x    64 x    50          85749248000     100.0%      0.0%      0.0%
 flops    13 x    25 x    50          86615360000     100.0%      0.0%      0.0%
 flops    25 x    13 x    50          86841040000     100.0%      0.0%      0.0%
 flops   242 x    64 x   178         110450999296     100.0%      0.0%      0.0%
 flops   242 x    64 x   183         113553555456     100.0%      0.0%      0.0%
 flops   973 x    32 x    50         115763648000     100.0%      0.0%      0.0%
 flops   973 x    50 x    32         115763648000     100.0%      0.0%      0.0%
 flops   242 x    32 x    32         120778645504     100.0%      0.0%      0.0%
 flops   242 x    64 x   195         120999690240     100.0%      0.0%      0.0%
 flops    25 x    18 x    13         124294084200     100.0%      0.0%      0.0%
 flops    13 x    18 x    25         124294084200     100.0%      0.0%      0.0%
 flops   955 x    32 x   178         134991098880     100.0%      0.0%      0.0%
 flops   955 x    32 x   183         138782983680     100.0%      0.0%      0.0%
 flops   991 x    32 x   178         140079768576     100.0%      0.0%      0.0%
 flops   991 x    32 x   183         144014593536     100.0%      0.0%      0.0%
 flops   955 x    32 x   195         147883507200     100.0%      0.0%      0.0%
 flops   991 x    32 x   195         153458173440     100.0%      0.0%      0.0%
 flops    25 x    25 x    50         166650000000     100.0%      0.0%      0.0%
 flops   973 x    64 x    50         168383488000     100.0%      0.0%      0.0%
 flops   973 x    50 x    64         168383488000     100.0%      0.0%      0.0%
 flops   242 x    64 x    32         175678029824     100.0%      0.0%      0.0%
 flops   242 x    32 x    64         175678029824     100.0%      0.0%      0.0%
 flops     5 x    32 x    25         175771008000     100.0%      0.0%      0.0%
 flops    25 x    32 x     5         175771008000     100.0%      0.0%      0.0%
 flops   955 x    64 x   178         196350689280     100.0%      0.0%      0.0%
 flops   955 x    64 x   183         201866158080     100.0%      0.0%      0.0%
 flops   991 x    64 x   178         203752390656     100.0%      0.0%      0.0%
 flops   991 x    64 x   183         209475772416     100.0%      0.0%      0.0%
 flops   224 x    32 x   178         210860998656     100.0%      0.0%      0.0%
 flops   955 x    64 x   195         215103283200     100.0%      0.0%      0.0%
 flops   224 x    32 x   183         216784060416     100.0%      0.0%      0.0%
 flops   991 x    64 x   195         223211888640     100.0%      0.0%      0.0%
 flops   224 x    32 x   195         230999408640     100.0%      0.0%      0.0%
 flops    25 x    18 x    25         236475000000     100.0%      0.0%      0.0%
 flops   242 x    64 x    64         255531679744     100.0%      0.0%      0.0%
 flops   973 x    32 x   178         275070867456     100.0%      0.0%      0.0%
 flops   973 x    32 x   183         282797577216     100.0%      0.0%      0.0%
 flops   973 x    32 x   195         301341680640     100.0%      0.0%      0.0%
 flops   224 x    64 x   178         306706907136     100.0%      0.0%      0.0%
 flops    13 x    13 x    32         308602566272     100.0%      0.0%      0.0%
 flops   224 x    64 x   183         315322269696     100.0%      0.0%      0.0%
 flops   224 x    32 x    32         335385329664     100.0%      0.0%      0.0%
 flops   224 x    64 x   195         335999139840     100.0%      0.0%      0.0%
 flops   955 x    32 x    32         399949721600     100.0%      0.0%      0.0%
 flops   973 x    64 x   178         400103079936     100.0%      0.0%      0.0%
 flops   973 x    64 x   183         411341930496     100.0%      0.0%      0.0%
 flops   991 x    32 x    32         415026360320     100.0%      0.0%      0.0%
 flops   973 x    64 x   195         438315171840     100.0%      0.0%      0.0%
 flops    13 x    13 x    64         448876460032     100.0%      0.0%      0.0%
 flops   224 x    32 x    64         487833206784     100.0%      0.0%      0.0%
 flops   224 x    64 x    32         487833206784     100.0%      0.0%      0.0%
 flops   955 x    32 x    64         581745049600     100.0%      0.0%      0.0%
 flops   955 x    64 x    32         581745049600     100.0%      0.0%      0.0%
 flops   991 x    32 x    64         603674705920     100.0%      0.0%      0.0%
 flops   991 x    64 x    32         603674705920     100.0%      0.0%      0.0%
 flops    13 x    25 x    32         609772134400     100.0%      0.0%      0.0%
 flops    25 x    13 x    32         611360921600     100.0%      0.0%      0.0%
 flops   224 x    64 x    64         709575573504     100.0%      0.0%      0.0%
 flops   973 x    32 x    32         814976081920     100.0%      0.0%      0.0%
 flops   955 x    64 x    64         846174617600     100.0%      0.0%      0.0%
 flops   991 x    64 x    64         878072299520     100.0%      0.0%      0.0%
 flops    13 x    25 x    64         886941286400     100.0%      0.0%      0.0%
 flops    25 x    13 x    64         889252249600     100.0%      0.0%      0.0%
 flops    25 x    25 x    32        1173216000000     100.0%      0.0%      0.0%
 flops   973 x    64 x    32        1185419755520     100.0%      0.0%      0.0%
 flops   973 x    32 x    64        1185419755520     100.0%      0.0%      0.0%
 flops    25 x    25 x    64        1706496000000     100.0%      0.0%      0.0%
 flops   973 x    64 x    64        1724246917120     100.0%      0.0%      0.0%
 flops    13 x    32 x    13        3094112612864     100.0%      0.0%      0.0%
 flops    25 x    32 x    13        6187083302400     100.0%      0.0%      0.0%
 flops    13 x    32 x    25        6187083302400     100.0%      0.0%      0.0%
 flops    25 x    32 x    25       11771200000000     100.0%      0.0%      0.0%
 flops inhomo. stacks              20425497891008     100.0%      0.0%      0.0%
 flops total                        76.723523E+12     100.0%      0.0%      0.0%
 flops max/rank                      1.332061E+12     100.0%      0.0%      0.0%
 matmuls inhomo. stacks                   2033920     100.0%      0.0%      0.0%
 matmuls total                         1535056658     100.0%      0.0%      0.0%
 number of processed stacks              27529920     100.0%      0.0%      0.0%
 average stack size                                    55.8       0.0       0.0
 marketing flops                    81.958747E+12
 -------------------------------------------------------------------------------
 # multiplications                           7163
 max memory usage/rank               1.357070E+09
 # max total images/rank                        5
 # max 3D layers                                1
 # MPI messages exchanged                65326560
 MPI messages size (bytes):
  total size                         8.107337E+12
  min size                           0.000000E+00
  max size                           1.894792E+06
  average size                     124.104758E+03
 MPI breakdown and total messages size (bytes):
             size <=      128              522880                        0
       128 < size <=     8192             8522184              69813731328
      8192 < size <=    32768            19640376             400661936384
     32768 < size <=   131072            28863280            2091441006208
    131072 < size <=  4194304             7777840            5544643583728
   4194304 < size <= 16777216                   0                        0
  16777216 < size                               0                        0
 -------------------------------------------------------------------------------

 *** WARNING in dbcsr/mm/dbcsr_mm.F:268 :: Using a non-square number of ***
 *** MPI ranks might lead to poor performance.                          ***
 *** Used ranks: 80                                                     ***
 *** Suggested: 81 169                                                  ***

 -------------------------------------------------------------------------------
 
 MEMORY| Estimated peak process memory [MiB]                                1319

 -------------------------------------------------------------------------------
 ----                             MULTIGRID INFO                            ----
 -------------------------------------------------------------------------------
 count for grid        1:        1095821          cutoff [a.u.]          600.00
 count for grid        2:        3841720          cutoff [a.u.]          200.00
 count for grid        3:        3017581          cutoff [a.u.]           66.67
 count for grid        4:        3385269          cutoff [a.u.]           22.22
 count for grid        5:        2534979          cutoff [a.u.]            7.41
 total gridlevel count  :       13875370

 -------------------------------------------------------------------------------
 -                                                                             -
 -                         MESSAGE PASSING PERFORMANCE                         -
 -                                                                             -
 -------------------------------------------------------------------------------

 ROUTINE             CALLS      AVE VOLUME [Bytes]
 MP_Group              755
 MP_Bcast            12701                  73978.
 MP_Allreduce        70901                    348.
 MP_Sync               343
 MP_Alltoall         40829                5293630.
 MP_SendRecv          4424                   5918.
 MP_ISendRecv       184386                 133520.
 MP_Wait           1596664
 MP_comm_split         338
 MP_ISend          1837448                 117425.
 MP_IRecv          1838012                 117336.
 MP_Recv               247                 162816.
 MP_Memory          796656
 -------------------------------------------------------------------------------


 -------------------------------------------------------------------------------
 -                                                                             -
 -                           R E F E R E N C E S                               -
 -                                                                             -
 -------------------------------------------------------------------------------
 
 CP2K version 7.0 (Development Version), the CP2K developers group (2018).
 CP2K is freely available from https://www.cp2k.org/ .

 Schuett, Ole; Messmer, Peter; Hutter, Juerg; VandeVondele, Joost. 
 Electronic Structure Calculations on Graphics Processing Units, John Wiley & Sons, Ltd, 173-190 (2016). 
 GPU-Accelerated Sparse Matrix-Matrix Multiplication for Linear Scaling Density Functional Theory.
 http://dx.doi.org/10.1002/9781118670712.ch8


 Borstnik, U; VandeVondele, J; Weber, V; Hutter, J. 
 PARALLEL COMPUTING, 40 (5-6), 47-58 (2014). 
 Sparse matrix multiplication: The distributed block-compressed sparse
 row library.
 http://dx.doi.org/10.1016/j.parco.2014.03.012


 Hutter, J; Iannuzzi, M; Schiffmann, F; VandeVondele, J. 
 WILEY INTERDISCIPLINARY REVIEWS-COMPUTATIONAL MOLECULAR SCIENCE, 4 (1), 15-25 (2014). 
 CP2K: atomistic simulations of condensed matter systems.
 http://dx.doi.org/10.1002/wcms.1159


 Grimme, S; Ehrlich, S; Goerigk, L. 
 JOURNAL OF COMPUTATIONAL CHEMISTRY, 32, 1456 (2011). 
 Effect of the damping function in dispersion corrected density functional theory.
 http://dx.doi.org/10.1002/jcc.21759


 Grimme, S; Antony, J; Ehrlich, S; Krieg, H. 
 JOURNAL OF CHEMICAL PHYSICS, 132 (15), 154104 (2010). 
 A consistent and accurate ab initio parametrization of density
 functional dispersion correction (DFT-D) for the 94 elements H-Pu.
 http://dx.doi.org/10.1063/1.3382344


 VandeVondele, J; Hutter, J. 
 JOURNAL OF CHEMICAL PHYSICS, 127 (11), 114105 (2007). 
 Gaussian basis sets for accurate calculations on molecular systems in
 gas and condensed phases.
 http://dx.doi.org/10.1063/1.2770708


 Krack, M. 
 THEORETICAL CHEMISTRY ACCOUNTS, 114 (1-3), 145-152 (2005). 
 Pseudopotentials for H to Kr optimized for gradient-corrected
 exchange-correlation functionals.
 http://dx.doi.org/10.1007/s00214-005-0655-y


 VandeVondele, J; Krack, M; Mohamed, F; Parrinello, M; Chassaing, T;
 Hutter, J. COMPUTER PHYSICS COMMUNICATIONS, 167 (2), 103-128 (2005). 
 QUICKSTEP: Fast and accurate density functional calculations using a
 mixed Gaussian and plane waves approach.
 http://dx.doi.org/10.1016/j.cpc.2004.12.014


 Frigo, M; Johnson, SG. 
 PROCEEDINGS OF THE IEEE, 93 (2), 216-231 (2005). 
 The design and implementation of FFTW3.
 http://dx.doi.org/10.1109/JPROC.2004.840301


 Kolafa, J. 
 JOURNAL OF COMPUTATIONAL CHEMISTRY, 25 (3), 335-342 (2004). 
 Time-reversible always stable predictor-corrector method for molecular dynamics of polarizable molecules.
 http://dx.doi.org/10.1002/jcc.10385


 VandeVondele, J; Hutter, J. 
 JOURNAL OF CHEMICAL PHYSICS, 118 (10), 4365-4369 (2003). 
 An efficient orbital transformation method for electronic structure
 calculations.
 http://dx.doi.org/10.1063/1.1543154


 Hartwigsen, C; Goedecker, S; Hutter, J. 
 PHYSICAL REVIEW B, 58 (7), 3641-3662 (1998). 
 Relativistic separable dual-space Gaussian pseudopotentials from H to Rn.
 http://dx.doi.org/10.1103/PhysRevB.58.3641


 Lippert, G; Hutter, J; Parrinello, M. 
 MOLECULAR PHYSICS, 92 (3), 477-487 (1997). 
 A hybrid Gaussian and plane wave density functional scheme.
 http://dx.doi.org/10.1080/002689797170220


 Perdew, JP; Burke, K; Ernzerhof, M. 
 PHYSICAL REVIEW LETTERS, 77 (18), 3865-3868 (1996). 
 Generalized gradient approximation made simple.
 http://dx.doi.org/10.1103/PhysRevLett.77.3865


 Goedecker, S; Teter, M; Hutter, J. 
 PHYSICAL REVIEW B, 54 (3), 1703-1710 (1996). 
 Separable dual-space Gaussian pseudopotentials.
 http://dx.doi.org/10.1103/PhysRevB.54.1703


 -------------------------------------------------------------------------------
 -                                                                             -
 -                                T I M I N G                                  -
 -                                                                             -
 -------------------------------------------------------------------------------
 SUBROUTINE                       CALLS  ASD         SELF TIME        TOTAL TIME
                                MAXIMUM       AVERAGE  MAXIMUM  AVERAGE  MAXIMUM
 CP2K                                 1  1.0    0.083    0.098 3671.014 3671.045
 cp_geo_opt                           1  2.0    0.003    0.003 3669.578 3669.630
 geoopt_bfgs                          1  3.0    0.023    0.035 3669.575 3669.627
 cp_eval_at                          15  4.0    0.006    0.008 3662.150 3662.190
 qs_forces                           14  5.0    0.008    0.013 3538.513 3538.514
 qs_energies                         15  5.9    0.037    0.073 3381.515 3381.562
 scf_env_do_scf                      15  6.9    0.005    0.029 3199.088 3199.101
 scf_env_do_scf_inner_loop          235  8.0    0.018    0.033 2875.263 2875.285
 rebuild_ks_matrix                  249  9.8    0.001    0.002 1580.712 1581.018
 qs_ks_build_kohn_sham_matrix       249 10.8    0.080    0.155 1580.711 1581.017
 qs_ks_update_qs_env                251  9.0    0.002    0.002 1331.555 1331.841
 qs_rho_update_rho                  250  9.0    0.002    0.003 1310.025 1310.759
 calculate_rho_elec                 500 10.0  646.777  658.518 1310.023 1310.757
 sum_up_and_integrate               139 11.7    2.057    2.306  875.097  875.438
 integrate_v_rspace                 278 12.7  487.062  502.424  873.039  873.662
 pw_transfer                       7897 13.3    0.831    0.945  788.229  793.411
 fft_wrap_pw1pw2                   7399 14.3    0.085    0.108  784.307  789.429
 fft_wrap_pw1pw2_600               4287 15.6   47.764   54.106  728.711  733.687
 fft3d_ps                          7399 16.3  220.451  242.985  673.051  679.867
 rs_pw_transfer                    3964 12.9    0.050    0.069  666.601  674.680
 density_rs2pw                      500 11.0    0.036    0.051  597.948  609.773
 qs_vxc_create                      249 11.8    0.010    0.024  545.254  545.424
 dbcsr_multiply_generic            7163 13.7    0.471    0.629  516.469  517.574
 mp_waitall_1                   1453224 16.6  456.298  476.519  456.298  476.519
 qs_scf_new_mos                     235  9.0    0.003    0.005  451.688  452.087
 qs_scf_loop_do_ot                  235 10.0    0.008    0.029  451.685  452.084
 mp_alltoall_z22v                  7399 18.3  390.209  432.299  390.209  432.299
 ot_scf_mini                        235 11.0    0.043    0.084  410.777  411.111
 xc_vxc_pw_create                   139 12.7   19.978   22.588  404.590  404.696
 multiply_cannon                   7163 14.7    2.280    2.453  394.522  403.322
 init_scf_loop                       16  7.9    0.005    0.025  323.461  323.478
 mp_waitany                      143440 14.9  294.591  314.830  294.591  314.830
 potential_pw2rs                    278 13.7    0.218    0.267  308.035  308.630
 xc_rho_set_and_dset_create         249 13.8    4.426    4.750  299.169  304.045
 rs_pw_transfer_RS2PW_600           530 12.9  105.161  114.547  270.593  278.947
 x_to_yz                           3216 18.0   34.830   40.544  255.149  271.396
 multiply_cannon_metrocomm3      143260 15.7    0.397    0.441  230.597  257.963
 qs_ks_update_qs_env_forces          14  6.0    0.000    0.000  251.428  251.499
 ot_mini                            235 12.0    0.003    0.016  214.083  214.365
 yz_to_x                           2627 16.8   21.840   22.904  191.372  212.111
 rs_pw_transfer_PW2RS_600           322 15.1   71.854   78.279  183.144  188.388
 prepare_preconditioner              16  8.9    0.000    0.001  173.073  173.149
 make_preconditioner                 32  9.9    0.003    0.005  158.754  158.781
 make_full_all                       32 10.9    0.013    0.043  141.962  142.036
 xc_exc_calc                        110 13.0    0.536    0.614  140.654  140.721
 qs_ot_get_derivative               250 13.0    0.005    0.006  133.859  134.188
 multiply_cannon_metrocomm1      143260 15.7    0.458    0.505   89.309  115.637
 mp_alltoall_d11v                  8528 15.1   99.585  114.440   99.585  114.440
 init_scf_run                        15  6.9    0.001    0.003  110.800  110.802
 scf_env_initial_rho_setup           15  7.9    0.002    0.003  110.799  110.801
 cp_fm_syevd                        338 13.8    0.003    0.004  108.561  108.961
 rs_distribute_matrix               806 11.9    1.024    2.027   93.153  107.376
 cp_fm_redistribute_end             338 14.8   35.705  104.505   36.405  104.954
 wfi_extrapolate                     15  8.9    0.008    0.037  104.356  104.386
 cp_fm_syevd_base                   338 14.4   68.086  101.044   68.086  101.044
 apply_preconditioner_dbcsr         282 14.0    0.001    0.001   87.073   87.271
 apply_all                          282 15.0    0.033    0.047   87.073   87.271
 qs_ot_get_p                        502 11.8    0.009    0.026   82.947   83.849
 ot_new_cg_direction                125 13.0    0.003    0.004   78.702   78.738
 -------------------------------------------------------------------------------

 The number of warnings for this run is : 1
 
 -------------------------------------------------------------------------------
  **** **** ******  **  PROGRAM ENDED AT                 2019-07-09 19:11:01.181
 ***** ** ***  *** **   PROGRAM RAN ON            blg7124.int.ets1.calculquebec.
 **    ****   ******    PROGRAM RAN BY                                       rzk
 ***** **    ** ** **   PROGRAM PROCESS ID                                 19595
  **** **  *******  **  PROGRAM STOPPED IN /lustre04/scratch/rzk/rzk/GaN-carbene
                                           /443-adatoms-both-2x2/09-BondBreaking
                                           -CH/03-0501-CH-to-Nsur-PES
