 DBCSR| Multiplication driver                                               BLAS
 DBCSR| Multrec recursion limit                                              512
 DBCSR| Multiplication stack size                                           1000
 DBCSR| Maximum elements for images                                    UNLIMITED
 DBCSR| Multiplicative factor virtual images                                   1
 DBCSR| Multiplication size stacks                                             3
 DBCSR| Number of 3D layers                                               SINGLE
 DBCSR| Use MPI memory allocation                                              T
 DBCSR| Use RMA algorithm                                                      F
 DBCSR| Use Communication thread                                               T
 DBCSR| Communication thread load                                             87


  **** **** ******  **  PROGRAM STARTED AT               2019-07-11 08:57:27.426
 ***** ** ***  *** **   PROGRAM STARTED ON        blg9216.int.ets1.calculquebec.
 **    ****   ******    PROGRAM STARTED BY                                   rzk
 ***** **    ** ** **   PROGRAM PROCESS ID                                425390
  **** **  *******  **  PROGRAM STARTED IN /lustre04/scratch/rzk/rzk/GaN-carbene
                                           /443-adatoms-both-2x2/09-BondBreaking
                                           -CH/03-0501-CH-to-Nsur-PES

 CP2K| version string:                    CP2K version 7.0 (Development Version)
 CP2K| source code revision number:                                    svn:18619
 CP2K| cp2kflags: libint fftw3 libxc parallel mpi3 scalapack mkl                
 CP2K| is freely available from                            https://www.cp2k.org/
 CP2K| Program compiled at                          Sun Apr  7 00:48:11 EDT 2019
 CP2K| Program compiled on                      beluga2.int.ets1.calculquebec.ca
 CP2K| Program compiled for                    Beluga-Linux-x86-64-intel-openmpi
 CP2K| Data directory path    /home/rzk/projects/def-rzk/group/cp2k/cp2k-mcgill/
 CP2K| Input file name                                            TEST-1.restart
 
 GLOBAL| Force Environment number                                              1
 GLOBAL| Basis set file name                                        BASIS_MOLOPT
 GLOBAL| Potential file name                                      GTH_POTENTIALS
 GLOBAL| MM Potential file name                                     MM_POTENTIAL
 GLOBAL| Coordinate file name                                      __STD_INPUT__
 GLOBAL| Method name                                                        CP2K
 GLOBAL| Project name                                                       TEST
 GLOBAL| Preferred FFT library                                             FFTW3
 GLOBAL| Preferred diagonalization lib.                                       SL
 GLOBAL| Run type                                                        GEO_OPT
 GLOBAL| All-to-all communication in single precision                          F
 GLOBAL| FFTs using library dependent lengths                                  F
 GLOBAL| Global print level                                               MEDIUM
 GLOBAL| MPI I/O enabled                                                       T
 GLOBAL| Total number of message passing processes                            80
 GLOBAL| Number of threads for this process                                    1
 GLOBAL| This output is from process                                           0
 GLOBAL| CPU model name :  Intel(R) Xeon(R) Gold 6148 CPU @ 2.40GHz

 MEMORY| system memory details [Kb]
 MEMORY|                        rank 0           min           max       average
 MEMORY| MemTotal            196614300     196614300     196614300     196614300
 MEMORY| MemFree             181947380     181493820     181950480     181758363
 MEMORY| Buffers                     0             0             0             0
 MEMORY| Cached                1315320       1302888       1315320       1309104
 MEMORY| Slab                  1067552       1067552       1371704       1219628
 MEMORY| SReclaimable           125232        125232        142560        133896
 MEMORY| MemLikelyFree       183387932     182939268     183391032     183201363


 *** Fundamental physical constants (SI units) ***

 *** Literature: B. J. Mohr and B. N. Taylor,
 ***             CODATA recommended values of the fundamental physical
 ***             constants: 2006, Web Version 5.1
 ***             http://physics.nist.gov/constants

 Speed of light in vacuum [m/s]                             2.99792458000000E+08
 Magnetic constant or permeability of vacuum [N/A**2]       1.25663706143592E-06
 Electric constant or permittivity of vacuum [F/m]          8.85418781762039E-12
 Planck constant (h) [J*s]                                  6.62606896000000E-34
 Planck constant (h-bar) [J*s]                              1.05457162825177E-34
 Elementary charge [C]                                      1.60217648700000E-19
 Electron mass [kg]                                         9.10938215000000E-31
 Electron g factor [ ]                                     -2.00231930436220E+00
 Proton mass [kg]                                           1.67262163700000E-27
 Fine-structure constant                                    7.29735253760000E-03
 Rydberg constant [1/m]                                     1.09737315685270E+07
 Avogadro constant [1/mol]                                  6.02214179000000E+23
 Boltzmann constant [J/K]                                   1.38065040000000E-23
 Atomic mass unit [kg]                                      1.66053878200000E-27
 Bohr radius [m]                                            5.29177208590000E-11

 *** Conversion factors ***

 [u] -> [a.u.]                                              1.82288848426455E+03
 [Angstrom] -> [Bohr] = [a.u.]                              1.88972613288564E+00
 [a.u.] = [Bohr] -> [Angstrom]                              5.29177208590000E-01
 [a.u.] -> [s]                                              2.41888432650478E-17
 [a.u.] -> [fs]                                             2.41888432650478E-02
 [a.u.] -> [J]                                              4.35974393937059E-18
 [a.u.] -> [N]                                              8.23872205491840E-08
 [a.u.] -> [K]                                              3.15774647902944E+05
 [a.u.] -> [kJ/mol]                                         2.62549961709828E+03
 [a.u.] -> [kcal/mol]                                       6.27509468713739E+02
 [a.u.] -> [Pa]                                             2.94210107994716E+13
 [a.u.] -> [bar]                                            2.94210107994716E+08
 [a.u.] -> [atm]                                            2.90362800883016E+08
 [a.u.] -> [eV]                                             2.72113838565563E+01
 [a.u.] -> [Hz]                                             6.57968392072181E+15
 [a.u.] -> [1/cm] (wave numbers)                            2.19474631370540E+05
 [a.u./Bohr**2] -> [1/cm]                                   5.14048714338585E+03
 
          ----------------------------------------------------------------------
 COLVARS| COLVAR INPUT INDEX:        1
 COLVARS| BOND          >>> ATOMS:                                   176     211
          ----------------------------------------------------------------------

 CELL_TOP| Volume [angstrom^3]:                                         4586.323
 CELL_TOP| Vector a [angstrom    12.864     0.000     0.000    |a| =      12.864
 CELL_TOP| Vector b [angstrom    -6.432    11.141     0.000    |b| =      12.864
 CELL_TOP| Vector c [angstrom     0.000     0.000    32.000    |c| =      32.000
 CELL_TOP| Angle (b,c), alpha [degree]:                                   90.000
 CELL_TOP| Angle (a,c), beta  [degree]:                                   90.000
 CELL_TOP| Angle (a,b), gamma [degree]:                                  120.000
 CELL_TOP| Numerically orthorhombic:                                          NO
 RESTRAINT| Active restraint on COLLECTIVE section Nr.     1. K [a.u.]= 2.000000
 
 GENERATE|  Preliminary Number of Bonds generated:                             0
 GENERATE|  Achieved consistency in connectivity generation.

 CELL| Volume [angstrom^3]:                                             4586.323
 CELL| Vector a [angstrom]:      12.864     0.000     0.000    |a| =      12.864
 CELL| Vector b [angstrom]:      -6.432    11.141     0.000    |b| =      12.864
 CELL| Vector c [angstrom]:       0.000     0.000    32.000    |c| =      32.000
 CELL| Angle (b,c), alpha [degree]:                                       90.000
 CELL| Angle (a,c), beta  [degree]:                                       90.000
 CELL| Angle (a,b), gamma [degree]:                                      120.000
 CELL| Numerically orthorhombic:                                              NO

 CELL_REF| Volume [angstrom^3]:                                         4670.759
 CELL_REF| Vector a [angstrom    12.982     0.000     0.000    |a| =      12.982
 CELL_REF| Vector b [angstrom    -6.491    11.243     0.000    |b| =      12.982
 CELL_REF| Vector c [angstrom     0.000     0.000    32.000    |c| =      32.000
 CELL_REF| Angle (b,c), alpha [degree]:                                   90.000
 CELL_REF| Angle (a,c), beta  [degree]:                                   90.000
 CELL_REF| Angle (a,b), gamma [degree]:                                  120.000
 CELL_REF| Numerically orthorhombic:                                          NO

 *******************************************************************************
 *******************************************************************************
 **                                                                           **
 **     #####                         ##              ##                      **
 **    ##   ##            ##          ##              ##                      **
 **   ##     ##                       ##            ######                    **
 **   ##     ##  ##   ##  ##   #####  ##  ##   ####   ##    #####    #####    **
 **   ##     ##  ##   ##  ##  ##      ## ##   ##      ##   ##   ##  ##   ##   **
 **   ##  ## ##  ##   ##  ##  ##      ####     ###    ##   ######   ######    **
 **    ##  ###   ##   ##  ##  ##      ## ##      ##   ##   ##       ##        **
 **     #######   #####   ##   #####  ##  ##  ####    ##    #####   ##        **
 **           ##                                                    ##        **
 **                                                                           **
 **                                                ... make the atoms dance   **
 **                                                                           **
 **            Copyright (C) by CP2K developers group (2000 - 2018)           **
 **                                                                           **
 *******************************************************************************

 DFT| Spin unrestricted (spin-polarized) Kohn-Sham calculation               UKS
 DFT| Multiplicity                                                             1
 DFT| Number of spin states                                                    2
 DFT| Charge                                                                   0
 DFT| Self-interaction correction (SIC)                                       NO
 DFT| Cutoffs: density                                              1.000000E-10
 DFT|          gradient                                             1.000000E-10
 DFT|          tau                                                  1.000000E-10
 DFT|          cutoff_smoothing_range                               0.000000E+00
 DFT| XC density smoothing                                                  NONE
 DFT| XC derivatives                                                          PW
 FUNCTIONAL| ROUTINE=NEW
 FUNCTIONAL| PBE:
 FUNCTIONAL| J.P.Perdew, K.Burke, M.Ernzerhof, Phys. Rev. Letter, vol. 77, n 18,
 FUNCTIONAL|  pp. 3865-3868, (1996){spin polarized}                             
 vdW POTENTIAL|                                                   Pair Potential
 vdW POTENTIAL|          DFT-D3 (Version 3.1)
 vdW POTENTIAL|          Potential Form: S. Grimme et al, JCP 132: 154104 (2010)
 vdW POTENTIAL|          Zero Damping
 vdW POTENTIAL|          Cutoff Radius [Bohr]:                             18.90
 vdW POTENTIAL|          s6 Scaling Factor:                               1.0000
 vdW POTENTIAL|          sr6 Scaling Factor:                              1.2170
 vdW POTENTIAL|          s8 Scaling Factor:                               0.7220
 vdW POTENTIAL|          Cutoff for CN calculation:                   0.1000E-05

 QS| Method:                                                                 GPW
 QS| Density plane wave grid type                        NON-SPHERICAL FULLSPACE
 QS| Number of grid levels:                                                    5
 QS| Density cutoff [a.u.]:                                                600.0
 QS| Multi grid cutoff [a.u.]: 1) grid level                               600.0
 QS|                           2) grid level                               200.0
 QS|                           3) grid level                                66.7
 QS|                           4) grid level                                22.2
 QS|                           5) grid level                                 7.4
 QS| Grid level progression factor:                                          3.0
 QS| Relative density cutoff [a.u.]:                                        20.0
 QS| Consistent realspace mapping and integration 
 QS| Interaction thresholds: eps_pgf_orb:                                1.0E-07
 QS|                         eps_filter_matrix:                          0.0E+00
 QS|                         eps_core_charge:                            1.0E-16
 QS|                         eps_rho_gspace:                             1.0E-14
 QS|                         eps_rho_rspace:                             1.0E-14
 QS|                         eps_gvg_rspace:                             1.0E-07
 QS|                         eps_ppl:                                    1.0E-02
 QS|                         eps_ppnl:                                   1.0E-09


 ATOMIC KIND INFORMATION

  1. Atomic kind: N                                     Number of atoms:     100

     Orbital Basis Set                                        DZVP-MOLOPT-SR-GTH

       Number of orbital shell sets:                                           1
       Number of orbital shells:                                               5
       Number of primitive Cartesian functions:                                5
       Number of Cartesian basis functions:                                   14
       Number of spherical basis functions:                                   13
       Norm type:                                                              2

       Normalised Cartesian orbitals:

                        Set   Shell   Orbital            Exponent    Coefficient

                          1       1    2s                7.341988       0.360561
                                                         2.542637       0.139177
                                                         0.888575      -0.289383
                                                         0.333802      -0.182244
                                                         0.112012      -0.019197

                          1       2    3s                7.341988       0.282000
                                                         2.542637       0.177875
                                                         0.888575      -0.278381
                                                         0.333802       0.008577
                                                         0.112012       0.154176

                          1       3    3px               7.341988      -1.188719
                                                         2.542637      -0.973969
                                                         0.888575      -0.501079
                                                         0.333802      -0.144894
                                                         0.112012      -0.013986
                          1       3    3py               7.341988      -1.188719
                                                         2.542637      -0.973969
                                                         0.888575      -0.501079
                                                         0.333802      -0.144894
                                                         0.112012      -0.013986
                          1       3    3pz               7.341988      -1.188719
                                                         2.542637      -0.973969
                                                         0.888575      -0.501079
                                                         0.333802      -0.144894
                                                         0.112012      -0.013986

                          1       4    4px               7.341988      -0.094798
                                                         2.542637       0.050069
                                                         0.888575      -0.114797
                                                         0.333802       0.144793
                                                         0.112012       0.066710
                          1       4    4py               7.341988      -0.094798
                                                         2.542637       0.050069
                                                         0.888575      -0.114797
                                                         0.333802       0.144793
                                                         0.112012       0.066710
                          1       4    4pz               7.341988      -0.094798
                                                         2.542637       0.050069
                                                         0.888575      -0.114797
                                                         0.333802       0.144793
                                                         0.112012       0.066710

                          1       5    4dx2              7.341988       1.354688
                                                         2.542637       0.690378
                                                         0.888575       0.855359
                                                         0.333802       0.091746
                                                         0.112012       0.001253
                          1       5    4dxy              7.341988       2.346389
                                                         2.542637       1.195770
                                                         0.888575       1.481524
                                                         0.333802       0.158910
                                                         0.112012       0.002169
                          1       5    4dxz              7.341988       2.346389
                                                         2.542637       1.195770
                                                         0.888575       1.481524
                                                         0.333802       0.158910
                                                         0.112012       0.002169
                          1       5    4dy2              7.341988       1.354688
                                                         2.542637       0.690378
                                                         0.888575       0.855359
                                                         0.333802       0.091746
                                                         0.112012       0.001253
                          1       5    4dyz              7.341988       2.346389
                                                         2.542637       1.195770
                                                         0.888575       1.481524
                                                         0.333802       0.158910
                                                         0.112012       0.002169
                          1       5    4dz2              7.341988       1.354688
                                                         2.542637       0.690378
                                                         0.888575       0.855359
                                                         0.333802       0.091746
                                                         0.112012       0.001253

     GTH Potential information for                                    GTH-PBE-q5

       Description:                       Goedecker-Teter-Hutter pseudopotential
                                           Goedecker et al., PRB 54, 1703 (1996)
                                          Hartwigsen et al., PRB 58, 3641 (1998)
                                                      Krack, TCA 114, 145 (2005)

       Gaussian exponent of the core charge distribution:               6.208322
       Electronic configuration (s p d ...):                               2   3

       Parameters of the local part of the GTH pseudopotential:

                          rloc        C1          C2          C3          C4
                        0.283791  -12.415226    1.868096

       Parameters of the non-local part of the GTH pseudopotential:

                   l      r(l)      h(i,j,l)

                   0    0.255405   13.630263
                   1    0.245495

  2. Atomic kind: Ga                                    Number of atoms:     100

     Orbital Basis Set                                        DZVP-MOLOPT-SR-GTH

       Number of orbital shell sets:                                           1
       Number of orbital shells:                                               7
       Number of primitive Cartesian functions:                                6
       Number of Cartesian basis functions:                                   30
       Number of spherical basis functions:                                   25
       Norm type:                                                              2

       Normalised Cartesian orbitals:

                        Set   Shell   Orbital            Exponent    Coefficient

                          1       1    2s                7.066654       0.013136
                                                         3.428369      -0.094392
                                                         1.430064       0.265435
                                                         0.571611       0.056465
                                                         0.232197      -0.192187
                                                         0.076562      -0.044987

                          1       2    3s                7.066654      -0.098564
                                                         3.428369       0.010390
                                                         1.430064       0.351249
                                                         0.571611       0.182615
                                                         0.232197      -0.425358
                                                         0.076562       0.190349

                          1       3    3px               7.066654       0.002364
                                                         3.428369       0.019222
                                                         1.430064       0.250132
                                                         0.571611      -0.058486
                                                         0.232197      -0.159451
                                                         0.076562      -0.020696
                          1       3    3py               7.066654       0.002364
                                                         3.428369       0.019222
                                                         1.430064       0.250132
                                                         0.571611      -0.058486
                                                         0.232197      -0.159451
                                                         0.076562      -0.020696
                          1       3    3pz               7.066654       0.002364
                                                         3.428369       0.019222
                                                         1.430064       0.250132
                                                         0.571611      -0.058486
                                                         0.232197      -0.159451
                                                         0.076562      -0.020696

                          1       4    4px               7.066654       0.492448
                                                         3.428369      -0.614736
                                                         1.430064      -0.191654
                                                         0.571611       0.037801
                                                         0.232197       0.302315
                                                         0.076562      -0.071336
                          1       4    4py               7.066654       0.492448
                                                         3.428369      -0.614736
                                                         1.430064      -0.191654
                                                         0.571611       0.037801
                                                         0.232197       0.302315
                                                         0.076562      -0.071336
                          1       4    4pz               7.066654       0.492448
                                                         3.428369      -0.614736
                                                         1.430064      -0.191654
                                                         0.571611       0.037801
                                                         0.232197       0.302315
                                                         0.076562      -0.071336

                          1       5    4dx2              7.066654     -15.264855
                                                         3.428369      -5.345726
                                                         1.430064      -1.022732
                                                         0.571611      -0.123148
                                                         0.232197      -0.006983
                                                         0.076562      -0.000022
                          1       5    4dxy              7.066654     -26.439504
                                                         3.428369      -9.259069
                                                         1.430064      -1.771423
                                                         0.571611      -0.213299
                                                         0.232197      -0.012094
                                                         0.076562      -0.000037
                          1       5    4dxz              7.066654     -26.439504
                                                         3.428369      -9.259069
                                                         1.430064      -1.771423
                                                         0.571611      -0.213299
                                                         0.232197      -0.012094
                                                         0.076562      -0.000037
                          1       5    4dy2              7.066654     -15.264855
                                                         3.428369      -5.345726
                                                         1.430064      -1.022732
                                                         0.571611      -0.123148
                                                         0.232197      -0.006983
                                                         0.076562      -0.000022
                          1       5    4dyz              7.066654     -26.439504
                                                         3.428369      -9.259069
                                                         1.430064      -1.771423
                                                         0.571611      -0.213299
                                                         0.232197      -0.012094
                                                         0.076562      -0.000037
                          1       5    4dz2              7.066654     -15.264855
                                                         3.428369      -5.345726
                                                         1.430064      -1.022732
                                                         0.571611      -0.123148
                                                         0.232197      -0.006983
                                                         0.076562      -0.000022

                          1       6    5dx2              7.066654      -5.739265
                                                         3.428369      -2.129289
                                                         1.430064      -0.700423
                                                         0.571611       0.161606
                                                         0.232197       0.043513
                                                         0.076562       0.011205
                          1       6    5dxy              7.066654      -9.940698
                                                         3.428369      -3.688037
                                                         1.430064      -1.213168
                                                         0.571611       0.279909
                                                         0.232197       0.075368
                                                         0.076562       0.019407
                          1       6    5dxz              7.066654      -9.940698
                                                         3.428369      -3.688037
                                                         1.430064      -1.213168
                                                         0.571611       0.279909
                                                         0.232197       0.075368
                                                         0.076562       0.019407
                          1       6    5dy2              7.066654      -5.739265
                                                         3.428369      -2.129289
                                                         1.430064      -0.700423
                                                         0.571611       0.161606
                                                         0.232197       0.043513
                                                         0.076562       0.011205
                          1       6    5dyz              7.066654      -9.940698
                                                         3.428369      -3.688037
                                                         1.430064      -1.213168
                                                         0.571611       0.279909
                                                         0.232197       0.075368
                                                         0.076562       0.019407
                          1       6    5dz2              7.066654      -5.739265
                                                         3.428369      -2.129289
                                                         1.430064      -0.700423
                                                         0.571611       0.161606
                                                         0.232197       0.043513
                                                         0.076562       0.011205

                          1       7    5fx3              7.066654       0.705879
                                                         3.428369      -0.273976
                                                         1.430064       0.113667
                                                         0.571611       0.132480
                                                         0.232197       0.012437
                                                         0.076562       0.003241
                          1       7    5fx2y             7.066654       1.578393
                                                         3.428369      -0.612629
                                                         1.430064       0.254167
                                                         0.571611       0.296234
                                                         0.232197       0.027811
                                                         0.076562       0.007246
                          1       7    5fx2z             7.066654       1.578393
                                                         3.428369      -0.612629
                                                         1.430064       0.254167
                                                         0.571611       0.296234
                                                         0.232197       0.027811
                                                         0.076562       0.007246
                          1       7    5fxy2             7.066654       1.578393
                                                         3.428369      -0.612629
                                                         1.430064       0.254167
                                                         0.571611       0.296234
                                                         0.232197       0.027811
                                                         0.076562       0.007246
                          1       7    5fxyz             7.066654       2.733856
                                                         3.428369      -1.061105
                                                         1.430064       0.440230
                                                         0.571611       0.513092
                                                         0.232197       0.048170
                                                         0.076562       0.012551
                          1       7    5fxz2             7.066654       1.578393
                                                         3.428369      -0.612629
                                                         1.430064       0.254167
                                                         0.571611       0.296234
                                                         0.232197       0.027811
                                                         0.076562       0.007246
                          1       7    5fy3              7.066654       0.705879
                                                         3.428369      -0.273976
                                                         1.430064       0.113667
                                                         0.571611       0.132480
                                                         0.232197       0.012437
                                                         0.076562       0.003241
                          1       7    5fy2z             7.066654       1.578393
                                                         3.428369      -0.612629
                                                         1.430064       0.254167
                                                         0.571611       0.296234
                                                         0.232197       0.027811
                                                         0.076562       0.007246
                          1       7    5fyz2             7.066654       1.578393
                                                         3.428369      -0.612629
                                                         1.430064       0.254167
                                                         0.571611       0.296234
                                                         0.232197       0.027811
                                                         0.076562       0.007246
                          1       7    5fz3              7.066654       0.705879
                                                         3.428369      -0.273976
                                                         1.430064       0.113667
                                                         0.571611       0.132480
                                                         0.232197       0.012437
                                                         0.076562       0.003241

     GTH Potential information for                                   GTH-PBE-q13

       Description:                       Goedecker-Teter-Hutter pseudopotential
                                           Goedecker et al., PRB 54, 1703 (1996)
                                          Hartwigsen et al., PRB 58, 3641 (1998)
                                                      Krack, TCA 114, 145 (2005)

       Gaussian exponent of the core charge distribution:               2.082466
       Electronic configuration (s p d ...):                           2   1  10

       Parameters of the local part of the GTH pseudopotential:

                          rloc        C1          C2          C3          C4
                        0.490000

       Parameters of the non-local part of the GTH pseudopotential:

                   l      r(l)      h(i,j,l)

                   0    0.416777   10.475690   -4.921768    0.870706
                                   -4.921768    7.770178   -2.248152
                                    0.870706   -2.248152    1.784415
                   1    0.569627    1.777985    0.195860
                                    0.195860   -0.231744
                   2    0.238126  -16.248680

  3. Atomic kind: O                                     Number of atoms:       2

     Orbital Basis Set                                     DZVP-MOLOPT-SR-GTH-q6

       Number of orbital shell sets:                                           1
       Number of orbital shells:                                               5
       Number of primitive Cartesian functions:                                5
       Number of Cartesian basis functions:                                   14
       Number of spherical basis functions:                                   13
       Norm type:                                                              2

       Normalised Cartesian orbitals:

                        Set   Shell   Orbital            Exponent    Coefficient

                          1       1    2s               10.389228       0.396646
                                                         3.849621       0.208811
                                                         1.388401      -0.301641
                                                         0.496955      -0.274061
                                                         0.162492      -0.033677

                          1       2    3s               10.389228       0.303673
                                                         3.849621       0.240943
                                                         1.388401      -0.313066
                                                         0.496955      -0.043055
                                                         0.162492       0.213991

                          1       3    3px              10.389228      -1.530415
                                                         3.849621      -1.371928
                                                         1.388401      -0.761951
                                                         0.496955      -0.253695
                                                         0.162492      -0.035541
                          1       3    3py              10.389228      -1.530415
                                                         3.849621      -1.371928
                                                         1.388401      -0.761951
                                                         0.496955      -0.253695
                                                         0.162492      -0.035541
                          1       3    3pz              10.389228      -1.530415
                                                         3.849621      -1.371928
                                                         1.388401      -0.761951
                                                         0.496955      -0.253695
                                                         0.162492      -0.035541

                          1       4    4px              10.389228      -0.565392
                                                         3.849621      -0.038231
                                                         1.388401      -0.382373
                                                         0.496955       0.179070
                                                         0.162492       0.122714
                          1       4    4py              10.389228      -0.565392
                                                         3.849621      -0.038231
                                                         1.388401      -0.382373
                                                         0.496955       0.179070
                                                         0.162492       0.122714
                          1       4    4pz              10.389228      -0.565392
                                                         3.849621      -0.038231
                                                         1.388401      -0.382373
                                                         0.496955       0.179070
                                                         0.162492       0.122714

                          1       5    4dx2             10.389228       1.867377
                                                         3.849621       0.670994
                                                         1.388401       1.353441
                                                         0.496955       0.273538
                                                         0.162492       0.006620
                          1       5    4dxy             10.389228       3.234392
                                                         3.849621       1.162195
                                                         1.388401       2.344229
                                                         0.496955       0.473781
                                                         0.162492       0.011466
                          1       5    4dxz             10.389228       3.234392
                                                         3.849621       1.162195
                                                         1.388401       2.344229
                                                         0.496955       0.473781
                                                         0.162492       0.011466
                          1       5    4dy2             10.389228       1.867377
                                                         3.849621       0.670994
                                                         1.388401       1.353441
                                                         0.496955       0.273538
                                                         0.162492       0.006620
                          1       5    4dyz             10.389228       3.234392
                                                         3.849621       1.162195
                                                         1.388401       2.344229
                                                         0.496955       0.473781
                                                         0.162492       0.011466
                          1       5    4dz2             10.389228       1.867377
                                                         3.849621       0.670994
                                                         1.388401       1.353441
                                                         0.496955       0.273538
                                                         0.162492       0.006620

     GTH Potential information for                                    GTH-PBE-q6

       Description:                       Goedecker-Teter-Hutter pseudopotential
                                           Goedecker et al., PRB 54, 1703 (1996)
                                          Hartwigsen et al., PRB 58, 3641 (1998)
                                                      Krack, TCA 114, 145 (2005)

       Gaussian exponent of the core charge distribution:               8.360253
       Electronic configuration (s p d ...):                               2   4

       Parameters of the local part of the GTH pseudopotential:

                          rloc        C1          C2          C3          C4
                        0.244554  -16.667215    2.487311

       Parameters of the non-local part of the GTH pseudopotential:

                   l      r(l)      h(i,j,l)

                   0    0.220956   18.337458
                   1    0.211332

  4. Atomic kind: H                                     Number of atoms:       8

     Orbital Basis Set                                     DZVP-MOLOPT-SR-GTH-q1

       Number of orbital shell sets:                                           1
       Number of orbital shells:                                               3
       Number of primitive Cartesian functions:                                5
       Number of Cartesian basis functions:                                    5
       Number of spherical basis functions:                                    5
       Norm type:                                                              2

       Normalised Cartesian orbitals:

                        Set   Shell   Orbital            Exponent    Coefficient

                          1       1    2s               10.068468      -0.133023
                                                         2.680223      -0.177618
                                                         0.791502      -0.258419
                                                         0.239116      -0.107525
                                                         0.082193      -0.014019

                          1       2    3s               10.068468       0.344673
                                                         2.680223       1.819821
                                                         0.791502      -0.999069
                                                         0.239116       0.017430
                                                         0.082193       0.082660

                          1       3    3px              10.068468       0.155326
                                                         2.680223       0.367157
                                                         0.791502       0.311480
                                                         0.239116       0.080105
                                                         0.082193       0.033440
                          1       3    3py              10.068468       0.155326
                                                         2.680223       0.367157
                                                         0.791502       0.311480
                                                         0.239116       0.080105
                                                         0.082193       0.033440
                          1       3    3pz              10.068468       0.155326
                                                         2.680223       0.367157
                                                         0.791502       0.311480
                                                         0.239116       0.080105
                                                         0.082193       0.033440

     GTH Potential information for                                    GTH-PBE-q1

       Description:                       Goedecker-Teter-Hutter pseudopotential
                                           Goedecker et al., PRB 54, 1703 (1996)
                                          Hartwigsen et al., PRB 58, 3641 (1998)
                                                      Krack, TCA 114, 145 (2005)

       Gaussian exponent of the core charge distribution:              12.500000
       Electronic configuration (s p d ...):                                   1

       Parameters of the local part of the GTH pseudopotential:

                          rloc        C1          C2          C3          C4
                        0.200000   -4.178900    0.724463

  5. Atomic kind: C                                     Number of atoms:       2

     Orbital Basis Set                                     DZVP-MOLOPT-SR-GTH-q4

       Number of orbital shell sets:                                           1
       Number of orbital shells:                                               5
       Number of primitive Cartesian functions:                                5
       Number of Cartesian basis functions:                                   14
       Number of spherical basis functions:                                   13
       Norm type:                                                              2

       Normalised Cartesian orbitals:

                        Set   Shell   Orbital            Exponent    Coefficient

                          1       1    2s                5.605331       0.322515
                                                         2.113016       0.213043
                                                         0.769911      -0.209686
                                                         0.348157      -0.219794
                                                         0.128212      -0.022789

                          1       2    3s                5.605331       0.552234
                                                         2.113016       0.082072
                                                         0.769911       0.007843
                                                         0.348157       0.136893
                                                         0.128212       0.074283

                          1       3    3px               5.605331      -0.703879
                                                         2.113016      -0.642521
                                                         0.769911      -0.374851
                                                         0.348157      -0.139743
                                                         0.128212      -0.027849
                          1       3    3py               5.605331      -0.703879
                                                         2.113016      -0.642521
                                                         0.769911      -0.374851
                                                         0.348157      -0.139743
                                                         0.128212      -0.027849
                          1       3    3pz               5.605331      -0.703879
                                                         2.113016      -0.642521
                                                         0.769911      -0.374851
                                                         0.348157      -0.139743
                                                         0.128212      -0.027849

                          1       4    4px               5.605331      -0.480376
                                                         2.113016      -0.552894
                                                         0.769911      -0.316145
                                                         0.348157       0.210505
                                                         0.128212       0.076095
                          1       4    4py               5.605331      -0.480376
                                                         2.113016      -0.552894
                                                         0.769911      -0.316145
                                                         0.348157       0.210505
                                                         0.128212       0.076095
                          1       4    4pz               5.605331      -0.480376
                                                         2.113016      -0.552894
                                                         0.769911      -0.316145
                                                         0.348157       0.210505
                                                         0.128212       0.076095

                          1       5    4dx2              5.605331       0.640026
                                                         2.113016       0.274300
                                                         0.769911       0.446711
                                                         0.348157       0.028674
                                                         0.128212       0.029790
                          1       5    4dxy              5.605331       1.108557
                                                         2.113016       0.475102
                                                         0.769911       0.773726
                                                         0.348157       0.049666
                                                         0.128212       0.051599
                          1       5    4dxz              5.605331       1.108557
                                                         2.113016       0.475102
                                                         0.769911       0.773726
                                                         0.348157       0.049666
                                                         0.128212       0.051599
                          1       5    4dy2              5.605331       0.640026
                                                         2.113016       0.274300
                                                         0.769911       0.446711
                                                         0.348157       0.028674
                                                         0.128212       0.029790
                          1       5    4dyz              5.605331       1.108557
                                                         2.113016       0.475102
                                                         0.769911       0.773726
                                                         0.348157       0.049666
                                                         0.128212       0.051599
                          1       5    4dz2              5.605331       0.640026
                                                         2.113016       0.274300
                                                         0.769911       0.446711
                                                         0.348157       0.028674
                                                         0.128212       0.029790

     GTH Potential information for                                    GTH-PBE-q4

       Description:                       Goedecker-Teter-Hutter pseudopotential
                                           Goedecker et al., PRB 54, 1703 (1996)
                                          Hartwigsen et al., PRB 58, 3641 (1998)
                                                      Krack, TCA 114, 145 (2005)

       Gaussian exponent of the core charge distribution:               4.364419
       Electronic configuration (s p d ...):                               2   2

       Parameters of the local part of the GTH pseudopotential:

                          rloc        C1          C2          C3          C4
                        0.338471   -8.803674    1.339211

       Parameters of the non-local part of the GTH pseudopotential:

                   l      r(l)      h(i,j,l)

                   0    0.302576    9.622487
                   1    0.291507


 MOLECULE KIND INFORMATION


 All atoms are their own molecule, skipping detailed information


 TOTAL NUMBERS AND MAXIMUM NUMBERS

  Total number of            - Atomic kinds:                                   5
                             - Atoms:                                        212
                             - Shell sets:                                   212
                             - Shells:                                      1244
                             - Primitive Cartesian functions:               1160
                             - Cartesian basis functions:                   4496
                             - Spherical basis functions:                   3892

  Maximum angular momentum of- Orbital basis functions:                        3
                             - Local part of the GTH pseudopotential:          2
                             - Non-local part of the GTH pseudopotential:      4


 MODULE QUICKSTEP:  ATOMIC COORDINATES IN angstrom

  Atom  Kind  Element       X           Y           Z          Z(eff)       Mass

       1     1 N    7    0.010314    2.042148    2.497548      5.00      14.0067
       2     2 Ga  31    0.026411    0.082296    2.833048     13.00      69.7230
       3     1 N    7   -0.002389    0.049027    5.016668      5.00      14.0067
       4     2 Ga  31    0.000127    1.876240    5.797463     13.00      69.7230
       5     1 N    7   -0.000717    1.888986    7.800352      5.00      14.0067
       6     2 Ga  31    0.004853    0.043051    8.439002     13.00      69.7230
       7     1 N    7    0.002104    0.042818   10.417012      5.00      14.0067
       8     2 Ga  31    0.002225    1.882443   11.068173     13.00      69.7230
       9     1 N    7    0.000659    1.863328   13.064858      5.00      14.0067
      10     2 Ga  31    0.001727    0.042623   13.866612     13.00      69.7230
      11     1 N    7    0.002463    0.041453   16.070067      5.00      14.0067
      12     2 Ga  31    0.000839    2.077792   16.477404     13.00      69.7230
      13     2 Ga  31    0.073151    3.736589    1.345962     13.00      69.7230
      14     1 N    7   -1.465574    4.622195    2.466648      5.00      14.0067
      15     2 Ga  31   -1.662679    2.791808    3.251196     13.00      69.7230
      16     1 N    7   -1.606363    2.832433    5.240780      5.00      14.0067
      17     2 Ga  31   -1.637661    4.693520    5.809285     13.00      69.7230
      18     1 N    7   -1.617111    4.691546    7.804759      5.00      14.0067
      19     2 Ga  31   -1.595481    2.833389    8.440763     13.00      69.7230
      20     1 N    7   -1.596059    2.835340   10.435311      5.00      14.0067
      21     2 Ga  31   -1.623396    4.694519   11.070457     13.00      69.7230
      22     1 N    7   -1.639813    4.704100   13.065424      5.00      14.0067
      23     2 Ga  31   -1.596364    2.835299   13.620035     13.00      69.7230
      24     1 N    7   -1.623913    2.820962   15.583564      5.00      14.0067
      25     2 Ga  31   -1.444859    4.591363   16.478860     13.00      69.7230
      26     1 N    7    0.008635    3.750732   17.610698      5.00      14.0067
      27     1 N    7   -3.215741    7.578453    2.491517      5.00      14.0067
      28     2 Ga  31   -3.181560    5.604495    2.829460     13.00      69.7230
      29     1 N    7   -3.209955    5.606691    5.016115      5.00      14.0067
      30     2 Ga  31   -3.227782    7.436402    5.781174     13.00      69.7230
      31     1 N    7   -3.216168    7.461351    7.784297      5.00      14.0067
      32     2 Ga  31   -3.216141    5.616934    8.442995     13.00      69.7230
      33     1 N    7   -3.215617    5.615717   10.418840      5.00      14.0067
      34     2 Ga  31   -3.217301    7.454269   11.070027     13.00      69.7230
      35     1 N    7   -3.216025    7.434804   13.064637      5.00      14.0067
      36     2 Ga  31   -3.215311    5.614785   13.866640     13.00      69.7230
      37     1 N    7   -3.213830    5.613938   16.070623      5.00      14.0067
      38     2 Ga  31   -3.215707    7.655904   16.482880     13.00      69.7230
      39     2 Ga  31   -3.246350    9.353738    1.291845     13.00      69.7230
      40     1 N    7   -4.727293   10.192479    2.501190      5.00      14.0067
      41     2 Ga  31   -4.922562    8.339007    3.214507     13.00      69.7230
      42     1 N    7   -4.831279    8.391413    5.207767      5.00      14.0067
      43     2 Ga  31   -4.849909   10.264835    5.771547     13.00      69.7230
      44     1 N    7   -4.833080   10.258293    7.781545      5.00      14.0067
      45     2 Ga  31   -4.813668    8.406786    8.430110     13.00      69.7230
      46     1 N    7   -4.811827    8.405630   10.427089      5.00      14.0067
      47     2 Ga  31   -4.837576   10.264172   11.066694     13.00      69.7230
      48     1 N    7   -4.854890   10.273957   13.062284      5.00      14.0067
      49     2 Ga  31   -4.812938    8.406479   13.621200     13.00      69.7230
      50     1 N    7   -4.840603    8.390481   15.582775      5.00      14.0067
      51     2 Ga  31   -4.657689   10.159824   16.483139     13.00      69.7230
      52     1 N    7   -3.208472    9.323852   17.618145      5.00      14.0067
      53     1 N    7    3.202629    1.901685    2.617347      5.00      14.0067
      54     2 Ga  31    3.208347    0.133589    3.249536     13.00      69.7230
      55     1 N    7    3.218079    0.040951    5.234181      5.00      14.0067
      56     2 Ga  31    3.211566    1.894370    5.870375     13.00      69.7230
      57     1 N    7    3.218306    1.897921    7.849786      5.00      14.0067
      58     2 Ga  31    3.213413    0.030692    8.429255     13.00      69.7230
      59     1 N    7    3.216530    0.029529   10.427448      5.00      14.0067
      60     2 Ga  31    3.216945    1.898856   11.023922     13.00      69.7230
      61     1 N    7    3.216981    1.899645   12.998387      5.00      14.0067
      62     2 Ga  31    3.215864    0.030604   13.620609     13.00      69.7230
      63     1 N    7    3.214929    0.062101   15.582446      5.00      14.0067
      64     2 Ga  31    3.216628    1.899671   15.861480     13.00      69.7230
      65     1 N    7    1.479115    4.620725    2.551517      5.00      14.0067
      66     2 Ga  31    1.684330    2.781748    3.295920     13.00      69.7230
      67     1 N    7    1.610748    2.829593    5.266458      5.00      14.0067
      68     2 Ga  31    1.653767    4.704848    5.803589     13.00      69.7230
      69     1 N    7    1.615311    4.692217    7.808990      5.00      14.0067
      70     2 Ga  31    1.599523    2.833351    8.433935     13.00      69.7230
      71     1 N    7    1.598654    2.834271   10.432779      5.00      14.0067
      72     2 Ga  31    1.624876    4.693040   11.069389     13.00      69.7230
      73     1 N    7    1.640488    4.703742   13.065771      5.00      14.0067
      74     2 Ga  31    1.597859    2.834756   13.619677     13.00      69.7230
      75     1 N    7    1.624959    2.819407   15.584553      5.00      14.0067
      76     2 Ga  31    1.453080    4.594956   16.477706     13.00      69.7230
      77     1 N    7   -0.007270    7.462890    2.700294      5.00      14.0067
      78     2 Ga  31   -0.003212    5.605654    3.338739     13.00      69.7230
      79     1 N    7   -0.002860    5.629856    5.271309      5.00      14.0067
      80     2 Ga  31   -0.009602    7.468198    5.908833     13.00      69.7230
      81     1 N    7   -0.000842    7.472999    7.867161      5.00      14.0067
      82     2 Ga  31    0.001324    5.598611    8.446944     13.00      69.7230
      83     1 N    7    0.000135    5.601950   10.438945      5.00      14.0067
      84     2 Ga  31   -0.000502    7.471232   11.029335     13.00      69.7230
      85     1 N    7    0.000017    7.471059   13.001483      5.00      14.0067
      86     2 Ga  31    0.000274    5.600857   13.620503     13.00      69.7230
      87     1 N    7   -0.000688    5.631352   15.583926      5.00      14.0067
      88     2 Ga  31    0.000370    7.470573   15.861662     13.00      69.7230
      89     1 N    7   -1.702765   10.194549    2.508716      5.00      14.0067
      90     2 Ga  31   -1.622847    8.397198    3.298244     13.00      69.7230
      91     1 N    7   -1.597899    8.392069    5.241065      5.00      14.0067
      92     2 Ga  31   -1.587795   10.274883    5.796684     13.00      69.7230
      93     1 N    7   -1.597262   10.259347    7.793558      5.00      14.0067
      94     2 Ga  31   -1.623686    8.406525    8.441494     13.00      69.7230
      95     1 N    7   -1.619998    8.405808   10.433836      5.00      14.0067
      96     2 Ga  31   -1.594566   10.265539   11.069747     13.00      69.7230
      97     1 N    7   -1.576284   10.274487   13.064554      5.00      14.0067
      98     2 Ga  31   -1.619457    8.406298   13.621893     13.00      69.7230
      99     1 N    7   -1.591092    8.388773   15.584489      5.00      14.0067
     100     2 Ga  31   -1.767696   10.163220   16.482350     13.00      69.7230
     101     1 N    7    6.437356    2.019732    2.551061      5.00      14.0067
     102     2 Ga  31    6.413231    0.044615    2.881461     13.00      69.7230
     103     1 N    7    6.437309    0.044440    5.031120      5.00      14.0067
     104     2 Ga  31    6.431883    1.877065    5.806585     13.00      69.7230
     105     1 N    7    6.434207    1.888793    7.802313      5.00      14.0067
     106     2 Ga  31    6.430414    0.044136    8.447773     13.00      69.7230
     107     1 N    7    6.432250    0.043154   10.421401      5.00      14.0067
     108     2 Ga  31    6.433024    1.883948   11.069535     13.00      69.7230
     109     1 N    7    6.433094    1.863751   13.065349      5.00      14.0067
     110     2 Ga  31    6.432683    0.042936   13.867429     13.00      69.7230
     111     1 N    7    6.433587    0.041121   16.070136      5.00      14.0067
     112     2 Ga  31    6.432361    2.076681   16.476285     13.00      69.7230
     113     2 Ga  31    6.449176    3.734156    1.543226     13.00      69.7230
     114     1 N    7    4.939257    4.610866    2.518706      5.00      14.0067
     115     2 Ga  31    4.705384    2.769422    3.303210     13.00      69.7230
     116     1 N    7    4.824116    2.829199    5.260395      5.00      14.0067
     117     2 Ga  31    4.787563    4.708972    5.800960     13.00      69.7230
     118     1 N    7    4.819848    4.690123    7.806251      5.00      14.0067
     119     2 Ga  31    4.833549    2.834144    8.437806     13.00      69.7230
     120     1 N    7    4.836299    2.834359   10.433969      5.00      14.0067
     121     2 Ga  31    4.810806    4.694222   11.067860     13.00      69.7230
     122     1 N    7    4.793595    4.703796   13.064087      5.00      14.0067
     123     2 Ga  31    4.835239    2.835309   13.618914     13.00      69.7230
     124     1 N    7    4.808364    2.821157   15.583108      5.00      14.0067
     125     2 Ga  31    4.985468    4.592136   16.477048     13.00      69.7230
     126     1 N    7    6.440035    3.751351   17.608957      5.00      14.0067
     127     1 N    7    3.210754    7.616916    2.533324      5.00      14.0067
     128     1 N    7    3.220134    5.619389    5.059769      5.00      14.0067
     129     2 Ga  31    3.225670    7.420000    5.811628     13.00      69.7230
     130     1 N    7    3.216414    7.466858    7.809443      5.00      14.0067
     131     2 Ga  31    3.217798    5.613704    8.444708     13.00      69.7230
     132     1 N    7    3.217452    5.614878   10.422230      5.00      14.0067
     133     2 Ga  31    3.218687    7.453446   11.071109     13.00      69.7230
     134     1 N    7    3.217013    7.434789   13.065940      5.00      14.0067
     135     2 Ga  31    3.217463    5.614140   13.865540     13.00      69.7230
     136     1 N    7    3.217922    5.613261   16.070401      5.00      14.0067
     137     2 Ga  31    3.216741    7.654170   16.481889     13.00      69.7230
     138     2 Ga  31    3.237814    9.359013    1.525583     13.00      69.7230
     139     1 N    7    1.710967   10.191903    2.535529      5.00      14.0067
     140     2 Ga  31    1.574821    8.376803    3.350769     13.00      69.7230
     141     1 N    7    1.595721    8.393798    5.270405      5.00      14.0067
     142     2 Ga  31    1.583325   10.279127    5.817007     13.00      69.7230
     143     1 N    7    1.599597   10.261546    7.805474      5.00      14.0067
     144     2 Ga  31    1.620914    8.406764    8.450511     13.00      69.7230
     145     1 N    7    1.619472    8.406652   10.439972      5.00      14.0067
     146     2 Ga  31    1.594093   10.266547   11.072130     13.00      69.7230
     147     1 N    7    1.576943   10.275053   13.065678      5.00      14.0067
     148     2 Ga  31    1.619570    8.406276   13.621456     13.00      69.7230
     149     1 N    7    1.592057    8.390440   15.583563      5.00      14.0067
     150     2 Ga  31    1.773905   10.159942   16.482829     13.00      69.7230
     151     1 N    7    3.224882    9.323268   17.617884      5.00      14.0067
     152     1 N    7    9.663229    1.909801    2.615448      5.00      14.0067
     153     2 Ga  31    9.662350    0.177809    3.303516     13.00      69.7230
     154     1 N    7    9.648927    0.043375    5.259700      5.00      14.0067
     155     2 Ga  31    9.662094    1.908071    5.876559     13.00      69.7230
     156     1 N    7    9.650941    1.900782    7.851906      5.00      14.0067
     157     2 Ga  31    9.652462    0.034145    8.439884     13.00      69.7230
     158     1 N    7    9.649605    0.031158   10.433634      5.00      14.0067
     159     2 Ga  31    9.649655    1.900855   11.027034     13.00      69.7230
     160     1 N    7    9.648821    1.900508   13.000276      5.00      14.0067
     161     2 Ga  31    9.649023    0.030866   13.621517     13.00      69.7230
     162     1 N    7    9.647551    0.061939   15.583724      5.00      14.0067
     163     2 Ga  31    9.649011    1.899991   15.862303     13.00      69.7230
     164     1 N    7    7.938923    4.621436    2.531869      5.00      14.0067
     165     2 Ga  31    8.159643    2.771881    3.308078     13.00      69.7230
     166     1 N    7    8.045278    2.827656    5.263535      5.00      14.0067
     167     2 Ga  31    8.068128    4.703752    5.797840     13.00      69.7230
     168     1 N    7    8.051170    4.692571    7.796735      5.00      14.0067
     169     2 Ga  31    8.033020    2.835541    8.436940     13.00      69.7230
     170     1 N    7    8.030840    2.835494   10.432667      5.00      14.0067
     171     2 Ga  31    8.056218    4.694864   11.069086     13.00      69.7230
     172     1 N    7    8.072895    4.703976   13.064984      5.00      14.0067
     173     2 Ga  31    8.029626    2.835480   13.620502     13.00      69.7230
     174     1 N    7    8.056831    2.819679   15.585482      5.00      14.0067
     175     2 Ga  31    7.886491    4.596233   16.476960     13.00      69.7230
     176     1 N    7    6.404035    7.454230    2.535326      5.00      14.0067
     177     2 Ga  31    6.427012    5.733820    3.290403     13.00      69.7230
     178     1 N    7    6.433678    5.617254    5.247377      5.00      14.0067
     179     2 Ga  31    6.439372    7.473078    5.871216     13.00      69.7230
     180     1 N    7    6.433430    7.471055    7.845831      5.00      14.0067
     181     2 Ga  31    6.433630    5.602829    8.437967     13.00      69.7230
     182     1 N    7    6.434390    5.602389   10.433204      5.00      14.0067
     183     2 Ga  31    6.434967    7.471341   11.025604     13.00      69.7230
     184     1 N    7    6.433629    7.470756   12.998914      5.00      14.0067
     185     2 Ga  31    6.432575    5.601357   13.619500     13.00      69.7230
     186     1 N    7    6.431361    5.631100   15.583511      5.00      14.0067
     187     2 Ga  31    6.432862    7.470576   15.861870     13.00      69.7230
     188     1 N    7    4.725809   10.203613    2.530829      5.00      14.0067
     189     2 Ga  31    4.937025    8.340591    3.297830     13.00      69.7230
     190     1 N    7    4.825903    8.400749    5.251807      5.00      14.0067
     191     2 Ga  31    4.858644   10.274255    5.801314     13.00      69.7230
     192     1 N    7    4.835066   10.261729    7.798310      5.00      14.0067
     193     2 Ga  31    4.817695    8.406752    8.439839     13.00      69.7230
     194     1 N    7    4.815781    8.406150   10.434242      5.00      14.0067
     195     2 Ga  31    4.841662   10.265486   11.069362     13.00      69.7230
     196     1 N    7    4.856776   10.274830   13.064709      5.00      14.0067
     197     2 Ga  31    4.814349    8.406025   13.620961     13.00      69.7230
     198     1 N    7    4.841100    8.388913   15.584406      5.00      14.0067
     199     2 Ga  31    4.666772   10.163976   16.481890     13.00      69.7230
     200     3 O    8    0.649135    3.847397   -0.404496      6.00      15.9994
     201     4 H    1    0.008535    7.449705    1.673942      1.00       1.0079
     202     5 C    6    0.915052    2.588836   -1.052977      4.00      12.0107
     203     4 H    1    1.621469    1.966625   -0.477679      1.00       1.0079
     204     4 H    1   -0.006033    2.007274   -1.217298      1.00       1.0079
     205     4 H    1    1.359956    2.808206   -2.034744      1.00       1.0079
     206     2 Ga  31    3.181496    5.590347    2.573761     13.00      69.7230
     207     3 O    8    3.078173    5.753712    0.347260      6.00      15.9994
     208     4 H    1    2.552190    5.051307   -0.099667      1.00       1.0079
     209     5 C    6    4.326626    6.062002   -0.315506      4.00      12.0107
     210     4 H    1    4.144593    6.697309   -1.193223      1.00       1.0079
     211     4 H    1    4.962156    6.594963    0.419463      1.00       1.0079
     212     4 H    1    4.847531    5.145952   -0.632411      1.00       1.0079




 SCF PARAMETERS         Density guess:                                    ATOMIC
                        --------------------------------------------------------
                        max_scf:                                              80
                        max_scf_history:                                       0
                        max_diis:                                              4
                        --------------------------------------------------------
                        eps_scf:                                        5.00E-06
                        eps_scf_history:                                0.00E+00
                        eps_diis:                                       1.00E-01
                        eps_eigval:                                     1.00E-05
                        --------------------------------------------------------
                        level_shift [a.u.]:                                 0.00
                        --------------------------------------------------------
                        Outer loop SCF in use 
                        No variables optimised in outer loop
                        eps_scf                                         5.00E-06
                        max_scf                                                4
                        No outer loop optimization
                        step_size                                       5.00E-01

 PW_GRID| Information for grid number                                          1
 PW_GRID| Grid distributed over                                    80 processors
 PW_GRID| Real space group dimensions                                    80    1
 PW_GRID| the grid is blocked:                                                NO
 PW_GRID| Cutoff [a.u.]                                                    600.0
 PW_GRID| spherical cutoff:                                                   NO
 PW_GRID|   Bounds   1           -144     143                Points:         288
 PW_GRID|   Bounds   2           -144     143                Points:         288
 PW_GRID|   Bounds   3           -337     337                Points:         675
 PW_GRID| Volume element (a.u.^3)  0.5630E-03     Volume (a.u.^3)     31519.8467
 PW_GRID| Grid span                                                    FULLSPACE
 PW_GRID|   Distribution                         Average         Max         Min
 PW_GRID|   G-Vectors                           699840.0      699840      699840
 PW_GRID|   G-Rays                                2430.0        2430        2430
 PW_GRID|   Real Space Points                   699840.0      777600      583200

 PW_GRID| Information for grid number                                          2
 PW_GRID| Grid distributed over                                    80 processors
 PW_GRID| Real space group dimensions                                    80    1
 PW_GRID| the grid is blocked:                                                NO
 PW_GRID| Cutoff [a.u.]                                                    200.0
 PW_GRID| spherical cutoff:                                                   NO
 PW_GRID|   Bounds   1            -80      79                Points:         160
 PW_GRID|   Bounds   2            -80      79                Points:         160
 PW_GRID|   Bounds   3           -200     199                Points:         400
 PW_GRID| Volume element (a.u.^3)  0.3078E-02     Volume (a.u.^3)     31519.8467
 PW_GRID| Grid span                                                    FULLSPACE
 PW_GRID|   Distribution                         Average         Max         Min
 PW_GRID|   G-Vectors                           128000.0      128160      127840
 PW_GRID|   G-Rays                                 800.0         801         799
 PW_GRID|   Real Space Points                   128000.0      128000      128000

 PW_GRID| Information for grid number                                          3
 PW_GRID| Grid distributed over                                    80 processors
 PW_GRID| Real space group dimensions                                    80    1
 PW_GRID| the grid is blocked:                                                NO
 PW_GRID| Cutoff [a.u.]                                                     66.7
 PW_GRID| spherical cutoff:                                                   NO
 PW_GRID|   Bounds   1            -48      47                Points:          96
 PW_GRID|   Bounds   2            -48      47                Points:          96
 PW_GRID|   Bounds   3           -112     112                Points:         225
 PW_GRID| Volume element (a.u.^3)  0.1520E-01     Volume (a.u.^3)     31519.8467
 PW_GRID| Grid span                                                    FULLSPACE
 PW_GRID|   Distribution                         Average         Max         Min
[...]
     21       Ga     2      13.000    6.939   6.939           -0.000     -0.877
     22       N      1       5.000    2.060   2.060           -0.000      0.881
     23       Ga     2      13.000    6.950   6.950            0.000     -0.900
     24       N      1       5.000    2.052   2.048            0.004      0.900
     25       Ga     2      13.000    6.911   6.907            0.004     -0.817
     26       N      1       5.000    2.277   2.178            0.100      0.545
     27       N      1       5.000    2.063   2.142           -0.079      0.794
     28       Ga     2      13.000    6.892   6.901           -0.010     -0.793
     29       N      1       5.000    2.098   2.106           -0.009      0.796
     30       Ga     2      13.000    6.937   6.939           -0.003     -0.876
     31       N      1       5.000    2.062   2.064           -0.002      0.874
     32       Ga     2      13.000    6.950   6.951           -0.001     -0.901
     33       N      1       5.000    2.051   2.052           -0.000      0.897
     34       Ga     2      13.000    6.939   6.940           -0.001     -0.879
     35       N      1       5.000    2.060   2.060           -0.000      0.880
     36       Ga     2      13.000    6.873   6.874           -0.001     -0.747
     37       N      1       5.000    2.137   2.138           -0.001      0.724
     38       Ga     2      13.000    6.918   6.909            0.010     -0.827
     39       Ga     2      13.000    6.486   6.904           -0.418     -0.391
     40       N      1       5.000    2.052   2.140           -0.089      0.808
     41       Ga     2      13.000    6.955   6.966           -0.011     -0.920
     42       N      1       5.000    2.053   2.061           -0.008      0.886
     43       Ga     2      13.000    6.939   6.942           -0.003     -0.881
     44       N      1       5.000    2.062   2.064           -0.001      0.874
     45       Ga     2      13.000    6.938   6.939           -0.001     -0.877
     46       N      1       5.000    2.062   2.062           -0.000      0.876
     47       Ga     2      13.000    6.939   6.939           -0.001     -0.878
     48       N      1       5.000    2.060   2.060           -0.000      0.881
     49       Ga     2      13.000    6.952   6.951            0.000     -0.903
     50       N      1       5.000    2.052   2.045            0.007      0.902
     51       Ga     2      13.000    6.919   6.909            0.010     -0.828
     52       N      1       5.000    2.317   2.140            0.177      0.543
     53       N      1       5.000    2.126   2.126            0.000      0.747
     54       Ga     2      13.000    6.963   6.973           -0.011     -0.936
     55       N      1       5.000    2.049   2.057           -0.008      0.893
     56       Ga     2      13.000    6.934   6.936           -0.002     -0.870
     57       N      1       5.000    2.055   2.056           -0.001      0.889
     58       Ga     2      13.000    6.937   6.938           -0.001     -0.875
     59       N      1       5.000    2.063   2.063           -0.000      0.875
     60       Ga     2      13.000    6.947   6.947           -0.000     -0.894
     61       N      1       5.000    2.064   2.062            0.002      0.874
     62       Ga     2      13.000    6.950   6.950            0.000     -0.900
     63       N      1       5.000    2.052   2.046            0.005      0.902
     64       Ga     2      13.000    6.860   6.858            0.002     -0.718
     65       N      1       5.000    2.088   2.088           -0.000      0.824
     66       Ga     2      13.000    6.970   6.970           -0.000     -0.939
     67       N      1       5.000    2.051   2.052           -0.000      0.897
     68       Ga     2      13.000    6.943   6.944           -0.001     -0.887
     69       N      1       5.000    2.060   2.060           -0.000      0.880
     70       Ga     2      13.000    6.937   6.938           -0.001     -0.875
     71       N      1       5.000    2.062   2.062           -0.000      0.875
     72       Ga     2      13.000    6.939   6.940           -0.001     -0.879
     73       N      1       5.000    2.060   2.060           -0.000      0.880
     74       Ga     2      13.000    6.949   6.949            0.001     -0.898
     75       N      1       5.000    2.055   2.045            0.010      0.900
     76       Ga     2      13.000    6.912   6.908            0.004     -0.819
     77       N      1       5.000    2.236   2.236            0.000      0.527
     78       Ga     2      13.000    6.993   6.993           -0.000     -0.987
     79       N      1       5.000    2.049   2.049           -0.000      0.902
     80       Ga     2      13.000    6.946   6.948           -0.002     -0.894
     81       N      1       5.000    2.053   2.054           -0.001      0.893
     82       Ga     2      13.000    6.939   6.939           -0.001     -0.878
     83       N      1       5.000    2.061   2.061           -0.001      0.878
     84       Ga     2      13.000    6.946   6.946           -0.000     -0.892
     85       N      1       5.000    2.063   2.061            0.001      0.876
     86       Ga     2      13.000    6.950   6.950            0.000     -0.899
     87       N      1       5.000    2.050   2.046            0.004      0.903
     88       Ga     2      13.000    6.859   6.858            0.001     -0.716
     89       N      1       5.000    2.063   2.139           -0.076      0.798
     90       Ga     2      13.000    6.988   6.999           -0.011     -0.987
     91       N      1       5.000    2.048   2.056           -0.008      0.896
     92       Ga     2      13.000    6.939   6.941           -0.003     -0.880
     93       N      1       5.000    2.061   2.062           -0.002      0.877
     94       Ga     2      13.000    6.938   6.939           -0.001     -0.877
     95       N      1       5.000    2.061   2.061           -0.000      0.878
     96       Ga     2      13.000    6.939   6.940           -0.001     -0.879
     97       N      1       5.000    2.058   2.059           -0.000      0.883
     98       Ga     2      13.000    6.951   6.950            0.001     -0.901
     99       N      1       5.000    2.055   2.042            0.013      0.902
    100       Ga     2      13.000    6.918   6.909            0.009     -0.827
    101       N      1       5.000    2.093   2.094           -0.001      0.813
    102       Ga     2      13.000    6.903   6.913           -0.010     -0.816
    103       N      1       5.000    2.094   2.104           -0.010      0.801
    104       Ga     2      13.000    6.943   6.945           -0.002     -0.888
    105       N      1       5.000    2.060   2.061           -0.001      0.880
    106       Ga     2      13.000    6.950   6.951           -0.001     -0.900
    107       N      1       5.000    2.051   2.052           -0.000      0.897
    108       Ga     2      13.000    6.940   6.940           -0.001     -0.880
    109       N      1       5.000    2.059   2.059           -0.000      0.882
    110       Ga     2      13.000    6.873   6.874           -0.001     -0.747
    111       N      1       5.000    2.138   2.139           -0.001      0.722
    112       Ga     2      13.000    6.919   6.909            0.010     -0.827
    113       Ga     2      13.000    6.810   6.817           -0.008     -0.627
    114       N      1       5.000    2.094   2.094           -0.000      0.812
    115       Ga     2      13.000    6.960   6.960           -0.000     -0.919
    116       N      1       5.000    2.051   2.051           -0.000      0.897
    117       Ga     2      13.000    6.948   6.948           -0.001     -0.896
    118       N      1       5.000    2.060   2.060           -0.000      0.880
    119       Ga     2      13.000    6.938   6.939           -0.001     -0.877
    120       N      1       5.000    2.061   2.061           -0.000      0.878
    121       Ga     2      13.000    6.938   6.939           -0.001     -0.878
    122       N      1       5.000    2.060   2.060           -0.000      0.880
    123       Ga     2      13.000    6.949   6.949            0.000     -0.899
    124       N      1       5.000    2.052   2.046            0.006      0.902
    125       Ga     2      13.000    6.918   6.908            0.010     -0.826
    126       N      1       5.000    2.320   2.135            0.185      0.546
    127       N      1       5.000    2.094   2.094           -0.000      0.813
    128       N      1       5.000    2.120   2.120           -0.000      0.760
    129       Ga     2      13.000    6.947   6.947           -0.001     -0.894
    130       N      1       5.000    2.060   2.061           -0.000      0.879
    131       Ga     2      13.000    6.949   6.950           -0.000     -0.899
    132       N      1       5.000    2.052   2.052           -0.000      0.897
    133       Ga     2      13.000    6.938   6.939           -0.001     -0.877
    134       N      1       5.000    2.062   2.062           -0.000      0.876
    135       Ga     2      13.000    6.873   6.875           -0.001     -0.748
    136       N      1       5.000    2.134   2.136           -0.001      0.730
    137       Ga     2      13.000    6.918   6.908            0.010     -0.825
    138       Ga     2      13.000    6.781   6.787           -0.006     -0.568
    139       N      1       5.000    2.102   2.102           -0.000      0.796
    140       Ga     2      13.000    6.982   6.982           -0.000     -0.964
    141       N      1       5.000    2.050   2.050           -0.000      0.900
    142       Ga     2      13.000    6.943   6.945           -0.003     -0.888
    143       N      1       5.000    2.059   2.060           -0.001      0.881
    144       Ga     2      13.000    6.939   6.940           -0.001     -0.878
    145       N      1       5.000    2.060   2.061           -0.001      0.879
    146       Ga     2      13.000    6.938   6.939           -0.000     -0.877
    147       N      1       5.000    2.060   2.060            0.000      0.880
    148       Ga     2      13.000    6.951   6.950            0.001     -0.900
    149       N      1       5.000    2.054   2.045            0.009      0.901
    150       Ga     2      13.000    6.916   6.907            0.009     -0.823
    151       N      1       5.000    2.334   2.135            0.199      0.531
    152       N      1       5.000    2.123   2.123           -0.000      0.754
    153       Ga     2      13.000    6.953   6.953           -0.000     -0.906
    154       N      1       5.000    2.052   2.052           -0.000      0.897
    155       Ga     2      13.000    6.935   6.936           -0.001     -0.871
    156       N      1       5.000    2.055   2.055           -0.000      0.889
    157       Ga     2      13.000    6.938   6.938           -0.001     -0.876
    158       N      1       5.000    2.061   2.062           -0.001      0.877
    159       Ga     2      13.000    6.947   6.947           -0.001     -0.894
    160       N      1       5.000    2.062   2.061            0.001      0.877
    161       Ga     2      13.000    6.950   6.950            0.001     -0.900
    162       N      1       5.000    2.054   2.046            0.008      0.900
    163       Ga     2      13.000    6.859   6.858            0.001     -0.716
    164       N      1       5.000    2.097   2.097           -0.001      0.806
    165       Ga     2      13.000    6.959   6.960           -0.001     -0.919
    166       N      1       5.000    2.051   2.051           -0.000      0.899
    167       Ga     2      13.000    6.942   6.944           -0.002     -0.887
    168       N      1       5.000    2.060   2.061           -0.001      0.879
    169       Ga     2      13.000    6.938   6.939           -0.001     -0.877
    170       N      1       5.000    2.061   2.061           -0.000      0.878
    171       Ga     2      13.000    6.938   6.939           -0.001     -0.877
    172       N      1       5.000    2.061   2.061           -0.000      0.879
    173       Ga     2      13.000    6.950   6.949            0.001     -0.899
    174       N      1       5.000    2.056   2.043            0.014      0.901
    175       Ga     2      13.000    6.918   6.908            0.010     -0.826
    176       N      1       5.000    2.147   2.147            0.000      0.706
    177       Ga     2      13.000    6.979   6.980           -0.000     -0.959
    178       N      1       5.000    2.051   2.051           -0.000      0.898
    179       Ga     2      13.000    6.935   6.937           -0.002     -0.871
    180       N      1       5.000    2.055   2.056           -0.001      0.889
    181       Ga     2      13.000    6.938   6.939           -0.001     -0.878
    182       N      1       5.000    2.061   2.061           -0.000      0.878
    183       Ga     2      13.000    6.947   6.947           -0.001     -0.894
    184       N      1       5.000    2.062   2.060            0.002      0.878
    185       Ga     2      13.000    6.950   6.950            0.000     -0.901
    186       N      1       5.000    2.051   2.044            0.007      0.904
    187       Ga     2      13.000    6.860   6.858            0.002     -0.718
    188       N      1       5.000    2.098   2.099           -0.000      0.803
    189       Ga     2      13.000    6.972   6.973           -0.000     -0.945
    190       N      1       5.000    2.051   2.051           -0.000      0.898
    191       Ga     2      13.000    6.945   6.947           -0.002     -0.891
    192       N      1       5.000    2.060   2.061           -0.001      0.880
    193       Ga     2      13.000    6.938   6.939           -0.001     -0.876
    194       N      1       5.000    2.061   2.062           -0.000      0.877
    195       Ga     2      13.000    6.938   6.938           -0.000     -0.876
    196       N      1       5.000    2.062   2.062           -0.000      0.876
    197       Ga     2      13.000    6.951   6.949            0.002     -0.901
    198       N      1       5.000    2.058   2.042            0.016      0.900
    199       Ga     2      13.000    6.918   6.908            0.010     -0.827
    200       O      3       6.000    3.032   3.033           -0.000     -0.065
    201       H      4       1.000    0.233   0.233           -0.000      0.534
    202       C      5       4.000    2.432   2.432           -0.000     -0.863
    203       H      4       1.000    0.278   0.278           -0.000      0.443
    204       H      4       1.000    0.281   0.281           -0.000      0.439
    205       H      4       1.000    0.281   0.281           -0.000      0.438
    206       Ga     2      13.000    6.988   6.988           -0.001     -0.976
    207       O      3       6.000    3.207   3.207           -0.000     -0.414
    208       H      4       1.000    0.211   0.211           -0.000      0.578
    209       C      5       4.000    2.373   2.373           -0.000     -0.747
    210       H      4       1.000    0.280   0.280           -0.000      0.441
    211       H      4       1.000    0.262   0.262           -0.000      0.476
    212       H      4       1.000    0.275   0.275           -0.000      0.450

  Total Charge                                                            0.003
 !-----------------------------------------------------------------------------!

 ENERGY| Total FORCE_EVAL ( QS ) energy (a.u.):            -8504.720924602032028


 --------  Informations at step =    47 ------------
  Optimization Method        =                 BFGS
  Total Energy               =     -8504.7209246020
  Real energy change         =         0.0038034698
  Predicted change in energy =        -0.0002920116
  Scaling factor             =         0.1708373208
  Step size                  =         0.3496612664
  Trust radius               =         0.4724315332
  Decrease in energy         =                   NO
  Used time                  =              275.334

  Convergence check :
  Max. step size             =         0.3496612664
  Conv. limit for step size  =         0.0030000000
  Convergence in step size   =                   NO
  RMS step size              =         0.0401660322
  Conv. limit for RMS step   =         0.0015000000
  Convergence in RMS step    =                   NO
  Max. gradient              =         0.0313902544
  Conv. limit for gradients  =         0.0004500000
  Conv. for gradients        =                   NO
  RMS gradient               =         0.0027729335
  Conv. limit for RMS grad.  =         0.0003000000
  Conv. for gradients        =                   NO
 ---------------------------------------------------

 --------------------------
 OPTIMIZATION STEP:     48
 --------------------------

 Spin 1

 Number of electrons:                                                        914
 Number of occupied orbitals:                                                914
 Number of molecular orbitals:                                               914

 Spin 2

 Number of electrons:                                                        914
 Number of occupied orbitals:                                                914
 Number of molecular orbitals:                                               914

 Number of orbital functions:                                               3892
 Number of independent orbital functions:                                   3892

 Parameters for the always stable predictor-corrector (ASPC) method:

  ASPC order: 3

  B(1) =   3.000000
  B(2) =  -3.428571
  B(3) =   1.928571
  B(4) =  -0.571429
  B(5) =   0.071429

 Parameters for the always stable predictor-corrector (ASPC) method:

  ASPC order: 3

  B(1) =   3.000000
  B(2) =  -3.428571
  B(3) =   1.928571
  B(4) =  -0.571429
  B(5) =   0.071429

 Extrapolation method: ASPC


 SCF WAVEFUNCTION OPTIMIZATION

  ----------------------------------- OT ---------------------------------------
  Minimizer      : CG                  : conjugate gradient
  Preconditioner : FULL_ALL            : diagonalization, state selective
  Precond_solver : DEFAULT
  Line search    : 2PNT                : 2 energies, one gradient
  stepsize       :    0.15000000                  energy_gap     :    0.08000000
  eps_taylor     :   0.10000E-15                  max_taylor     :             4
  ----------------------------------- OT ---------------------------------------

  Step     Update method      Time    Convergence         Total energy    Change
  ------------------------------------------------------------------------------
     1 OT CG       0.15E+00   27.7     0.00027437     -8504.5981807499 -8.50E+03
     2 OT LS       0.33E+00    8.1                    -8504.6604176924
     3 OT CG       0.33E+00   17.9     0.00024891     -8504.6871465511 -8.90E-02
     4 OT LS       0.11E+00    8.1                    -8504.6132001789
     5 OT CG       0.11E+00   18.7     0.00009715     -8504.7117741815 -2.46E-02
     6 OT LS       0.13E+00    8.1                    -8504.7160675155
     7 OT CG       0.13E+00   18.2     0.00004200     -8504.7161610006 -4.39E-03
     8 OT LS       0.22E+00    8.4                    -8504.7173077990
     9 OT CG       0.22E+00   18.6     0.00003609     -8504.7175224293 -1.36E-03
    10 OT LS       0.30E+00    8.1                    -8504.7187672059
    11 OT CG       0.30E+00   18.4     0.00004647     -8504.7188686867 -1.35E-03
    12 OT LS       0.29E+00    8.5                    -8504.7211034504
    13 OT CG       0.29E+00   18.2     0.00005585     -8504.7211264758 -2.26E-03
    14 OT LS       0.11E+00    8.4                    -8504.7195291583
    15 OT CG       0.11E+00   18.0     0.00003576     -8504.7223109734 -1.18E-03
    16 OT LS       0.21E+00    8.2                    -8504.7230691349
