 DBCSR| Multiplication driver                                               BLAS
 DBCSR| Multrec recursion limit                                              512
 DBCSR| Multiplication stack size                                           1000
 DBCSR| Maximum elements for images                                    UNLIMITED
 DBCSR| Multiplicative factor virtual images                                   1
 DBCSR| Multiplication size stacks                                             3
 DBCSR| Number of 3D layers                                               SINGLE
 DBCSR| Use MPI memory allocation                                              T
 DBCSR| Use RMA algorithm                                                      F
 DBCSR| Use Communication thread                                               T
 DBCSR| Communication thread load                                             87


  **** **** ******  **  PROGRAM STARTED AT               2019-07-12 04:53:15.778
 ***** ** ***  *** **   PROGRAM STARTED ON        blg9235.int.ets1.calculquebec.
 **    ****   ******    PROGRAM STARTED BY                                   rzk
 ***** **    ** ** **   PROGRAM PROCESS ID                                243112
  **** **  *******  **  PROGRAM STARTED IN /lustre04/scratch/rzk/rzk/GaN-carbene
                                           /443-adatoms-both-2x2/09-BondBreaking
                                           -CH/03-0501-CH-to-Nsur-PES

 CP2K| version string:                    CP2K version 7.0 (Development Version)
 CP2K| source code revision number:                                    svn:18619
 CP2K| cp2kflags: libint fftw3 libxc parallel mpi3 scalapack mkl                
 CP2K| is freely available from                            https://www.cp2k.org/
 CP2K| Program compiled at                          Sun Apr  7 00:48:11 EDT 2019
 CP2K| Program compiled on                      beluga2.int.ets1.calculquebec.ca
 CP2K| Program compiled for                    Beluga-Linux-x86-64-intel-openmpi
 CP2K| Data directory path    /home/rzk/projects/def-rzk/group/cp2k/cp2k-mcgill/
 CP2K| Input file name                                            TEST-1.restart
 
 GLOBAL| Force Environment number                                              1
 GLOBAL| Basis set file name                                        BASIS_MOLOPT
 GLOBAL| Potential file name                                      GTH_POTENTIALS
 GLOBAL| MM Potential file name                                     MM_POTENTIAL
 GLOBAL| Coordinate file name                                      __STD_INPUT__
 GLOBAL| Method name                                                        CP2K
 GLOBAL| Project name                                                       TEST
 GLOBAL| Preferred FFT library                                             FFTW3
 GLOBAL| Preferred diagonalization lib.                                       SL
 GLOBAL| Run type                                                        GEO_OPT
 GLOBAL| All-to-all communication in single precision                          F
 GLOBAL| FFTs using library dependent lengths                                  F
 GLOBAL| Global print level                                               MEDIUM
 GLOBAL| MPI I/O enabled                                                       T
 GLOBAL| Total number of message passing processes                            80
 GLOBAL| Number of threads for this process                                    1
 GLOBAL| This output is from process                                           0
 GLOBAL| CPU model name :  Intel(R) Xeon(R) Gold 6148 CPU @ 2.40GHz

 MEMORY| system memory details [Kb]
 MEMORY|                        rank 0           min           max       average
 MEMORY| MemTotal            196614300     196614300     196614300     196614300
 MEMORY| MemFree             180719076     180718456     182333516     181515120
 MEMORY| Buffers                     0             0             0             0
 MEMORY| Cached                1313460       1292540       1313460       1303000
 MEMORY| Slab                  1307028       1237520       1307028       1272274
 MEMORY| SReclaimable           197824        197824        211024        204424
 MEMORY| MemLikelyFree       182230360     182229740     183837080     183022544


 *** Fundamental physical constants (SI units) ***

 *** Literature: B. J. Mohr and B. N. Taylor,
 ***             CODATA recommended values of the fundamental physical
 ***             constants: 2006, Web Version 5.1
 ***             http://physics.nist.gov/constants

 Speed of light in vacuum [m/s]                             2.99792458000000E+08
 Magnetic constant or permeability of vacuum [N/A**2]       1.25663706143592E-06
 Electric constant or permittivity of vacuum [F/m]          8.85418781762039E-12
 Planck constant (h) [J*s]                                  6.62606896000000E-34
 Planck constant (h-bar) [J*s]                              1.05457162825177E-34
 Elementary charge [C]                                      1.60217648700000E-19
 Electron mass [kg]                                         9.10938215000000E-31
 Electron g factor [ ]                                     -2.00231930436220E+00
 Proton mass [kg]                                           1.67262163700000E-27
 Fine-structure constant                                    7.29735253760000E-03
 Rydberg constant [1/m]                                     1.09737315685270E+07
 Avogadro constant [1/mol]                                  6.02214179000000E+23
 Boltzmann constant [J/K]                                   1.38065040000000E-23
 Atomic mass unit [kg]                                      1.66053878200000E-27
 Bohr radius [m]                                            5.29177208590000E-11

 *** Conversion factors ***

 [u] -> [a.u.]                                              1.82288848426455E+03
 [Angstrom] -> [Bohr] = [a.u.]                              1.88972613288564E+00
 [a.u.] = [Bohr] -> [Angstrom]                              5.29177208590000E-01
 [a.u.] -> [s]                                              2.41888432650478E-17
 [a.u.] -> [fs]                                             2.41888432650478E-02
 [a.u.] -> [J]                                              4.35974393937059E-18
 [a.u.] -> [N]                                              8.23872205491840E-08
 [a.u.] -> [K]                                              3.15774647902944E+05
 [a.u.] -> [kJ/mol]                                         2.62549961709828E+03
 [a.u.] -> [kcal/mol]                                       6.27509468713739E+02
 [a.u.] -> [Pa]                                             2.94210107994716E+13
 [a.u.] -> [bar]                                            2.94210107994716E+08
 [a.u.] -> [atm]                                            2.90362800883016E+08
 [a.u.] -> [eV]                                             2.72113838565563E+01
 [a.u.] -> [Hz]                                             6.57968392072181E+15
 [a.u.] -> [1/cm] (wave numbers)                            2.19474631370540E+05
 [a.u./Bohr**2] -> [1/cm]                                   5.14048714338585E+03
 
          ----------------------------------------------------------------------
 COLVARS| COLVAR INPUT INDEX:        1
 COLVARS| BOND          >>> ATOMS:                                   176     211
          ----------------------------------------------------------------------

 CELL_TOP| Volume [angstrom^3]:                                         4586.323
 CELL_TOP| Vector a [angstrom    12.864     0.000     0.000    |a| =      12.864
 CELL_TOP| Vector b [angstrom    -6.432    11.141     0.000    |b| =      12.864
 CELL_TOP| Vector c [angstrom     0.000     0.000    32.000    |c| =      32.000
 CELL_TOP| Angle (b,c), alpha [degree]:                                   90.000
 CELL_TOP| Angle (a,c), beta  [degree]:                                   90.000
 CELL_TOP| Angle (a,b), gamma [degree]:                                  120.000
 CELL_TOP| Numerically orthorhombic:                                          NO
 RESTRAINT| Active restraint on COLLECTIVE section Nr.     1. K [a.u.]= 2.000000
 
 GENERATE|  Preliminary Number of Bonds generated:                             0
 GENERATE|  Achieved consistency in connectivity generation.

 CELL| Volume [angstrom^3]:                                             4586.323
 CELL| Vector a [angstrom]:      12.864     0.000     0.000    |a| =      12.864
 CELL| Vector b [angstrom]:      -6.432    11.141     0.000    |b| =      12.864
 CELL| Vector c [angstrom]:       0.000     0.000    32.000    |c| =      32.000
 CELL| Angle (b,c), alpha [degree]:                                       90.000
 CELL| Angle (a,c), beta  [degree]:                                       90.000
 CELL| Angle (a,b), gamma [degree]:                                      120.000
 CELL| Numerically orthorhombic:                                              NO

 CELL_REF| Volume [angstrom^3]:                                         4670.759
 CELL_REF| Vector a [angstrom    12.982     0.000     0.000    |a| =      12.982
 CELL_REF| Vector b [angstrom    -6.491    11.243     0.000    |b| =      12.982
 CELL_REF| Vector c [angstrom     0.000     0.000    32.000    |c| =      32.000
 CELL_REF| Angle (b,c), alpha [degree]:                                   90.000
 CELL_REF| Angle (a,c), beta  [degree]:                                   90.000
 CELL_REF| Angle (a,b), gamma [degree]:                                  120.000
 CELL_REF| Numerically orthorhombic:                                          NO

 *******************************************************************************
 *******************************************************************************
 **                                                                           **
 **     #####                         ##              ##                      **
 **    ##   ##            ##          ##              ##                      **
 **   ##     ##                       ##            ######                    **
 **   ##     ##  ##   ##  ##   #####  ##  ##   ####   ##    #####    #####    **
 **   ##     ##  ##   ##  ##  ##      ## ##   ##      ##   ##   ##  ##   ##   **
 **   ##  ## ##  ##   ##  ##  ##      ####     ###    ##   ######   ######    **
 **    ##  ###   ##   ##  ##  ##      ## ##      ##   ##   ##       ##        **
 **     #######   #####   ##   #####  ##  ##  ####    ##    #####   ##        **
 **           ##                                                    ##        **
 **                                                                           **
 **                                                ... make the atoms dance   **
 **                                                                           **
 **            Copyright (C) by CP2K developers group (2000 - 2018)           **
 **                                                                           **
 *******************************************************************************

 DFT| Spin unrestricted (spin-polarized) Kohn-Sham calculation               UKS
 DFT| Multiplicity                                                             1
 DFT| Number of spin states                                                    2
 DFT| Charge                                                                   0
 DFT| Self-interaction correction (SIC)                                       NO
 DFT| Cutoffs: density                                              1.000000E-10
 DFT|          gradient                                             1.000000E-10
 DFT|          tau                                                  1.000000E-10
 DFT|          cutoff_smoothing_range                               0.000000E+00
 DFT| XC density smoothing                                                  NONE
 DFT| XC derivatives                                                          PW
 FUNCTIONAL| ROUTINE=NEW
 FUNCTIONAL| PBE:
 FUNCTIONAL| J.P.Perdew, K.Burke, M.Ernzerhof, Phys. Rev. Letter, vol. 77, n 18,
 FUNCTIONAL|  pp. 3865-3868, (1996){spin polarized}                             
 vdW POTENTIAL|                                                   Pair Potential
 vdW POTENTIAL|          DFT-D3 (Version 3.1)
 vdW POTENTIAL|          Potential Form: S. Grimme et al, JCP 132: 154104 (2010)
 vdW POTENTIAL|          Zero Damping
 vdW POTENTIAL|          Cutoff Radius [Bohr]:                             18.90
 vdW POTENTIAL|          s6 Scaling Factor:                               1.0000
 vdW POTENTIAL|          sr6 Scaling Factor:                              1.2170
 vdW POTENTIAL|          s8 Scaling Factor:                               0.7220
 vdW POTENTIAL|          Cutoff for CN calculation:                   0.1000E-05

 QS| Method:                                                                 GPW
 QS| Density plane wave grid type                        NON-SPHERICAL FULLSPACE
 QS| Number of grid levels:                                                    5
 QS| Density cutoff [a.u.]:                                                600.0
 QS| Multi grid cutoff [a.u.]: 1) grid level                               600.0
 QS|                           2) grid level                               200.0
 QS|                           3) grid level                                66.7
 QS|                           4) grid level                                22.2
 QS|                           5) grid level                                 7.4
 QS| Grid level progression factor:                                          3.0
 QS| Relative density cutoff [a.u.]:                                        20.0
 QS| Consistent realspace mapping and integration 
 QS| Interaction thresholds: eps_pgf_orb:                                1.0E-07
 QS|                         eps_filter_matrix:                          0.0E+00
 QS|                         eps_core_charge:                            1.0E-16
 QS|                         eps_rho_gspace:                             1.0E-14
 QS|                         eps_rho_rspace:                             1.0E-14
 QS|                         eps_gvg_rspace:                             1.0E-07
 QS|                         eps_ppl:                                    1.0E-02
 QS|                         eps_ppnl:                                   1.0E-09


 ATOMIC KIND INFORMATION

  1. Atomic kind: N                                     Number of atoms:     100

     Orbital Basis Set                                        DZVP-MOLOPT-SR-GTH

       Number of orbital shell sets:                                           1
       Number of orbital shells:                                               5
       Number of primitive Cartesian functions:                                5
       Number of Cartesian basis functions:                                   14
       Number of spherical basis functions:                                   13
       Norm type:                                                              2

       Normalised Cartesian orbitals:

                        Set   Shell   Orbital            Exponent    Coefficient

                          1       1    2s                7.341988       0.360561
                                                         2.542637       0.139177
                                                         0.888575      -0.289383
                                                         0.333802      -0.182244
                                                         0.112012      -0.019197

                          1       2    3s                7.341988       0.282000
                                                         2.542637       0.177875
                                                         0.888575      -0.278381
                                                         0.333802       0.008577
                                                         0.112012       0.154176

                          1       3    3px               7.341988      -1.188719
                                                         2.542637      -0.973969
                                                         0.888575      -0.501079
                                                         0.333802      -0.144894
                                                         0.112012      -0.013986
                          1       3    3py               7.341988      -1.188719
                                                         2.542637      -0.973969
                                                         0.888575      -0.501079
                                                         0.333802      -0.144894
                                                         0.112012      -0.013986
                          1       3    3pz               7.341988      -1.188719
                                                         2.542637      -0.973969
                                                         0.888575      -0.501079
                                                         0.333802      -0.144894
                                                         0.112012      -0.013986

                          1       4    4px               7.341988      -0.094798
                                                         2.542637       0.050069
                                                         0.888575      -0.114797
                                                         0.333802       0.144793
                                                         0.112012       0.066710
                          1       4    4py               7.341988      -0.094798
                                                         2.542637       0.050069
                                                         0.888575      -0.114797
                                                         0.333802       0.144793
                                                         0.112012       0.066710
                          1       4    4pz               7.341988      -0.094798
                                                         2.542637       0.050069
                                                         0.888575      -0.114797
                                                         0.333802       0.144793
                                                         0.112012       0.066710

                          1       5    4dx2              7.341988       1.354688
                                                         2.542637       0.690378
                                                         0.888575       0.855359
                                                         0.333802       0.091746
                                                         0.112012       0.001253
                          1       5    4dxy              7.341988       2.346389
                                                         2.542637       1.195770
                                                         0.888575       1.481524
                                                         0.333802       0.158910
                                                         0.112012       0.002169
                          1       5    4dxz              7.341988       2.346389
                                                         2.542637       1.195770
                                                         0.888575       1.481524
                                                         0.333802       0.158910
                                                         0.112012       0.002169
                          1       5    4dy2              7.341988       1.354688
                                                         2.542637       0.690378
                                                         0.888575       0.855359
                                                         0.333802       0.091746
                                                         0.112012       0.001253
                          1       5    4dyz              7.341988       2.346389
                                                         2.542637       1.195770
                                                         0.888575       1.481524
                                                         0.333802       0.158910
                                                         0.112012       0.002169
                          1       5    4dz2              7.341988       1.354688
                                                         2.542637       0.690378
                                                         0.888575       0.855359
                                                         0.333802       0.091746
                                                         0.112012       0.001253

     GTH Potential information for                                    GTH-PBE-q5

       Description:                       Goedecker-Teter-Hutter pseudopotential
                                           Goedecker et al., PRB 54, 1703 (1996)
                                          Hartwigsen et al., PRB 58, 3641 (1998)
                                                      Krack, TCA 114, 145 (2005)

       Gaussian exponent of the core charge distribution:               6.208322
       Electronic configuration (s p d ...):                               2   3

       Parameters of the local part of the GTH pseudopotential:

                          rloc        C1          C2          C3          C4
                        0.283791  -12.415226    1.868096

       Parameters of the non-local part of the GTH pseudopotential:

                   l      r(l)      h(i,j,l)

                   0    0.255405   13.630263
                   1    0.245495

  2. Atomic kind: Ga                                    Number of atoms:     100

     Orbital Basis Set                                        DZVP-MOLOPT-SR-GTH

       Number of orbital shell sets:                                           1
       Number of orbital shells:                                               7
       Number of primitive Cartesian functions:                                6
       Number of Cartesian basis functions:                                   30
       Number of spherical basis functions:                                   25
       Norm type:                                                              2

       Normalised Cartesian orbitals:

                        Set   Shell   Orbital            Exponent    Coefficient

                          1       1    2s                7.066654       0.013136
                                                         3.428369      -0.094392
                                                         1.430064       0.265435
                                                         0.571611       0.056465
                                                         0.232197      -0.192187
                                                         0.076562      -0.044987

                          1       2    3s                7.066654      -0.098564
                                                         3.428369       0.010390
                                                         1.430064       0.351249
                                                         0.571611       0.182615
                                                         0.232197      -0.425358
                                                         0.076562       0.190349

                          1       3    3px               7.066654       0.002364
                                                         3.428369       0.019222
                                                         1.430064       0.250132
                                                         0.571611      -0.058486
                                                         0.232197      -0.159451
                                                         0.076562      -0.020696
                          1       3    3py               7.066654       0.002364
                                                         3.428369       0.019222
                                                         1.430064       0.250132
                                                         0.571611      -0.058486
                                                         0.232197      -0.159451
                                                         0.076562      -0.020696
                          1       3    3pz               7.066654       0.002364
                                                         3.428369       0.019222
                                                         1.430064       0.250132
                                                         0.571611      -0.058486
                                                         0.232197      -0.159451
                                                         0.076562      -0.020696

                          1       4    4px               7.066654       0.492448
                                                         3.428369      -0.614736
                                                         1.430064      -0.191654
                                                         0.571611       0.037801
                                                         0.232197       0.302315
                                                         0.076562      -0.071336
                          1       4    4py               7.066654       0.492448
                                                         3.428369      -0.614736
                                                         1.430064      -0.191654
                                                         0.571611       0.037801
                                                         0.232197       0.302315
                                                         0.076562      -0.071336
                          1       4    4pz               7.066654       0.492448
                                                         3.428369      -0.614736
                                                         1.430064      -0.191654
                                                         0.571611       0.037801
                                                         0.232197       0.302315
                                                         0.076562      -0.071336

                          1       5    4dx2              7.066654     -15.264855
                                                         3.428369      -5.345726
                                                         1.430064      -1.022732
                                                         0.571611      -0.123148
                                                         0.232197      -0.006983
                                                         0.076562      -0.000022
                          1       5    4dxy              7.066654     -26.439504
                                                         3.428369      -9.259069
                                                         1.430064      -1.771423
                                                         0.571611      -0.213299
                                                         0.232197      -0.012094
                                                         0.076562      -0.000037
                          1       5    4dxz              7.066654     -26.439504
                                                         3.428369      -9.259069
                                                         1.430064      -1.771423
                                                         0.571611      -0.213299
                                                         0.232197      -0.012094
                                                         0.076562      -0.000037
                          1       5    4dy2              7.066654     -15.264855
                                                         3.428369      -5.345726
                                                         1.430064      -1.022732
                                                         0.571611      -0.123148
                                                         0.232197      -0.006983
                                                         0.076562      -0.000022
                          1       5    4dyz              7.066654     -26.439504
                                                         3.428369      -9.259069
                                                         1.430064      -1.771423
                                                         0.571611      -0.213299
                                                         0.232197      -0.012094
                                                         0.076562      -0.000037
                          1       5    4dz2              7.066654     -15.264855
                                                         3.428369      -5.345726
                                                         1.430064      -1.022732
                                                         0.571611      -0.123148
                                                         0.232197      -0.006983
                                                         0.076562      -0.000022

                          1       6    5dx2              7.066654      -5.739265
                                                         3.428369      -2.129289
                                                         1.430064      -0.700423
                                                         0.571611       0.161606
                                                         0.232197       0.043513
                                                         0.076562       0.011205
                          1       6    5dxy              7.066654      -9.940698
                                                         3.428369      -3.688037
                                                         1.430064      -1.213168
                                                         0.571611       0.279909
                                                         0.232197       0.075368
                                                         0.076562       0.019407
                          1       6    5dxz              7.066654      -9.940698
                                                         3.428369      -3.688037
                                                         1.430064      -1.213168
                                                         0.571611       0.279909
                                                         0.232197       0.075368
                                                         0.076562       0.019407
                          1       6    5dy2              7.066654      -5.739265
                                                         3.428369      -2.129289
                                                         1.430064      -0.700423
                                                         0.571611       0.161606
                                                         0.232197       0.043513
                                                         0.076562       0.011205
                          1       6    5dyz              7.066654      -9.940698
                                                         3.428369      -3.688037
                                                         1.430064      -1.213168
                                                         0.571611       0.279909
                                                         0.232197       0.075368
                                                         0.076562       0.019407
                          1       6    5dz2              7.066654      -5.739265
                                                         3.428369      -2.129289
                                                         1.430064      -0.700423
                                                         0.571611       0.161606
                                                         0.232197       0.043513
                                                         0.076562       0.011205

                          1       7    5fx3              7.066654       0.705879
                                                         3.428369      -0.273976
                                                         1.430064       0.113667
                                                         0.571611       0.132480
                                                         0.232197       0.012437
                                                         0.076562       0.003241
                          1       7    5fx2y             7.066654       1.578393
                                                         3.428369      -0.612629
                                                         1.430064       0.254167
                                                         0.571611       0.296234
                                                         0.232197       0.027811
                                                         0.076562       0.007246
                          1       7    5fx2z             7.066654       1.578393
                                                         3.428369      -0.612629
                                                         1.430064       0.254167
                                                         0.571611       0.296234
                                                         0.232197       0.027811
                                                         0.076562       0.007246
                          1       7    5fxy2             7.066654       1.578393
                                                         3.428369      -0.612629
                                                         1.430064       0.254167
                                                         0.571611       0.296234
                                                         0.232197       0.027811
                                                         0.076562       0.007246
                          1       7    5fxyz             7.066654       2.733856
                                                         3.428369      -1.061105
                                                         1.430064       0.440230
                                                         0.571611       0.513092
                                                         0.232197       0.048170
                                                         0.076562       0.012551
                          1       7    5fxz2             7.066654       1.578393
                                                         3.428369      -0.612629
                                                         1.430064       0.254167
                                                         0.571611       0.296234
                                                         0.232197       0.027811
                                                         0.076562       0.007246
                          1       7    5fy3              7.066654       0.705879
                                                         3.428369      -0.273976
                                                         1.430064       0.113667
                                                         0.571611       0.132480
                                                         0.232197       0.012437
                                                         0.076562       0.003241
                          1       7    5fy2z             7.066654       1.578393
                                                         3.428369      -0.612629
                                                         1.430064       0.254167
                                                         0.571611       0.296234
                                                         0.232197       0.027811
                                                         0.076562       0.007246
                          1       7    5fyz2             7.066654       1.578393
                                                         3.428369      -0.612629
                                                         1.430064       0.254167
                                                         0.571611       0.296234
                                                         0.232197       0.027811
                                                         0.076562       0.007246
                          1       7    5fz3              7.066654       0.705879
                                                         3.428369      -0.273976
                                                         1.430064       0.113667
                                                         0.571611       0.132480
                                                         0.232197       0.012437
                                                         0.076562       0.003241

     GTH Potential information for                                   GTH-PBE-q13

       Description:                       Goedecker-Teter-Hutter pseudopotential
                                           Goedecker et al., PRB 54, 1703 (1996)
                                          Hartwigsen et al., PRB 58, 3641 (1998)
                                                      Krack, TCA 114, 145 (2005)

       Gaussian exponent of the core charge distribution:               2.082466
       Electronic configuration (s p d ...):                           2   1  10

       Parameters of the local part of the GTH pseudopotential:

                          rloc        C1          C2          C3          C4
                        0.490000

       Parameters of the non-local part of the GTH pseudopotential:

                   l      r(l)      h(i,j,l)

                   0    0.416777   10.475690   -4.921768    0.870706
                                   -4.921768    7.770178   -2.248152
                                    0.870706   -2.248152    1.784415
                   1    0.569627    1.777985    0.195860
                                    0.195860   -0.231744
                   2    0.238126  -16.248680

  3. Atomic kind: O                                     Number of atoms:       2

     Orbital Basis Set                                     DZVP-MOLOPT-SR-GTH-q6

       Number of orbital shell sets:                                           1
       Number of orbital shells:                                               5
       Number of primitive Cartesian functions:                                5
       Number of Cartesian basis functions:                                   14
       Number of spherical basis functions:                                   13
       Norm type:                                                              2

       Normalised Cartesian orbitals:

                        Set   Shell   Orbital            Exponent    Coefficient

                          1       1    2s               10.389228       0.396646
                                                         3.849621       0.208811
                                                         1.388401      -0.301641
                                                         0.496955      -0.274061
                                                         0.162492      -0.033677

                          1       2    3s               10.389228       0.303673
                                                         3.849621       0.240943
                                                         1.388401      -0.313066
                                                         0.496955      -0.043055
                                                         0.162492       0.213991

                          1       3    3px              10.389228      -1.530415
                                                         3.849621      -1.371928
                                                         1.388401      -0.761951
                                                         0.496955      -0.253695
                                                         0.162492      -0.035541
                          1       3    3py              10.389228      -1.530415
                                                         3.849621      -1.371928
                                                         1.388401      -0.761951
                                                         0.496955      -0.253695
                                                         0.162492      -0.035541
                          1       3    3pz              10.389228      -1.530415
                                                         3.849621      -1.371928
                                                         1.388401      -0.761951
                                                         0.496955      -0.253695
                                                         0.162492      -0.035541

                          1       4    4px              10.389228      -0.565392
                                                         3.849621      -0.038231
                                                         1.388401      -0.382373
                                                         0.496955       0.179070
                                                         0.162492       0.122714
                          1       4    4py              10.389228      -0.565392
                                                         3.849621      -0.038231
                                                         1.388401      -0.382373
                                                         0.496955       0.179070
                                                         0.162492       0.122714
                          1       4    4pz              10.389228      -0.565392
                                                         3.849621      -0.038231
                                                         1.388401      -0.382373
                                                         0.496955       0.179070
                                                         0.162492       0.122714

                          1       5    4dx2             10.389228       1.867377
                                                         3.849621       0.670994
                                                         1.388401       1.353441
                                                         0.496955       0.273538
                                                         0.162492       0.006620
                          1       5    4dxy             10.389228       3.234392
                                                         3.849621       1.162195
                                                         1.388401       2.344229
                                                         0.496955       0.473781
                                                         0.162492       0.011466
                          1       5    4dxz             10.389228       3.234392
                                                         3.849621       1.162195
                                                         1.388401       2.344229
                                                         0.496955       0.473781
                                                         0.162492       0.011466
                          1       5    4dy2             10.389228       1.867377
                                                         3.849621       0.670994
                                                         1.388401       1.353441
                                                         0.496955       0.273538
                                                         0.162492       0.006620
                          1       5    4dyz             10.389228       3.234392
                                                         3.849621       1.162195
                                                         1.388401       2.344229
                                                         0.496955       0.473781
                                                         0.162492       0.011466
                          1       5    4dz2             10.389228       1.867377
                                                         3.849621       0.670994
                                                         1.388401       1.353441
                                                         0.496955       0.273538
                                                         0.162492       0.006620

     GTH Potential information for                                    GTH-PBE-q6

       Description:                       Goedecker-Teter-Hutter pseudopotential
                                           Goedecker et al., PRB 54, 1703 (1996)
                                          Hartwigsen et al., PRB 58, 3641 (1998)
                                                      Krack, TCA 114, 145 (2005)

       Gaussian exponent of the core charge distribution:               8.360253
       Electronic configuration (s p d ...):                               2   4

       Parameters of the local part of the GTH pseudopotential:

                          rloc        C1          C2          C3          C4
                        0.244554  -16.667215    2.487311

       Parameters of the non-local part of the GTH pseudopotential:

                   l      r(l)      h(i,j,l)

                   0    0.220956   18.337458
                   1    0.211332

  4. Atomic kind: H                                     Number of atoms:       8

     Orbital Basis Set                                     DZVP-MOLOPT-SR-GTH-q1

       Number of orbital shell sets:                                           1
       Number of orbital shells:                                               3
       Number of primitive Cartesian functions:                                5
       Number of Cartesian basis functions:                                    5
       Number of spherical basis functions:                                    5
       Norm type:                                                              2

       Normalised Cartesian orbitals:

                        Set   Shell   Orbital            Exponent    Coefficient

                          1       1    2s               10.068468      -0.133023
                                                         2.680223      -0.177618
                                                         0.791502      -0.258419
                                                         0.239116      -0.107525
                                                         0.082193      -0.014019

                          1       2    3s               10.068468       0.344673
                                                         2.680223       1.819821
                                                         0.791502      -0.999069
                                                         0.239116       0.017430
                                                         0.082193       0.082660

                          1       3    3px              10.068468       0.155326
                                                         2.680223       0.367157
                                                         0.791502       0.311480
                                                         0.239116       0.080105
                                                         0.082193       0.033440
                          1       3    3py              10.068468       0.155326
                                                         2.680223       0.367157
                                                         0.791502       0.311480
                                                         0.239116       0.080105
                                                         0.082193       0.033440
                          1       3    3pz              10.068468       0.155326
                                                         2.680223       0.367157
                                                         0.791502       0.311480
                                                         0.239116       0.080105
                                                         0.082193       0.033440

     GTH Potential information for                                    GTH-PBE-q1

       Description:                       Goedecker-Teter-Hutter pseudopotential
                                           Goedecker et al., PRB 54, 1703 (1996)
                                          Hartwigsen et al., PRB 58, 3641 (1998)
                                                      Krack, TCA 114, 145 (2005)

       Gaussian exponent of the core charge distribution:              12.500000
       Electronic configuration (s p d ...):                                   1

       Parameters of the local part of the GTH pseudopotential:

                          rloc        C1          C2          C3          C4
                        0.200000   -4.178900    0.724463

  5. Atomic kind: C                                     Number of atoms:       2

     Orbital Basis Set                                     DZVP-MOLOPT-SR-GTH-q4

       Number of orbital shell sets:                                           1
       Number of orbital shells:                                               5
       Number of primitive Cartesian functions:                                5
       Number of Cartesian basis functions:                                   14
       Number of spherical basis functions:                                   13
       Norm type:                                                              2

       Normalised Cartesian orbitals:

                        Set   Shell   Orbital            Exponent    Coefficient

                          1       1    2s                5.605331       0.322515
                                                         2.113016       0.213043
                                                         0.769911      -0.209686
                                                         0.348157      -0.219794
                                                         0.128212      -0.022789

                          1       2    3s                5.605331       0.552234
                                                         2.113016       0.082072
                                                         0.769911       0.007843
                                                         0.348157       0.136893
                                                         0.128212       0.074283

                          1       3    3px               5.605331      -0.703879
                                                         2.113016      -0.642521
                                                         0.769911      -0.374851
                                                         0.348157      -0.139743
                                                         0.128212      -0.027849
                          1       3    3py               5.605331      -0.703879
                                                         2.113016      -0.642521
                                                         0.769911      -0.374851
                                                         0.348157      -0.139743
                                                         0.128212      -0.027849
                          1       3    3pz               5.605331      -0.703879
                                                         2.113016      -0.642521
                                                         0.769911      -0.374851
                                                         0.348157      -0.139743
                                                         0.128212      -0.027849

                          1       4    4px               5.605331      -0.480376
                                                         2.113016      -0.552894
                                                         0.769911      -0.316145
                                                         0.348157       0.210505
                                                         0.128212       0.076095
                          1       4    4py               5.605331      -0.480376
                                                         2.113016      -0.552894
                                                         0.769911      -0.316145
                                                         0.348157       0.210505
                                                         0.128212       0.076095
                          1       4    4pz               5.605331      -0.480376
                                                         2.113016      -0.552894
                                                         0.769911      -0.316145
                                                         0.348157       0.210505
                                                         0.128212       0.076095

                          1       5    4dx2              5.605331       0.640026
                                                         2.113016       0.274300
                                                         0.769911       0.446711
                                                         0.348157       0.028674
                                                         0.128212       0.029790
                          1       5    4dxy              5.605331       1.108557
                                                         2.113016       0.475102
                                                         0.769911       0.773726
                                                         0.348157       0.049666
                                                         0.128212       0.051599
                          1       5    4dxz              5.605331       1.108557
                                                         2.113016       0.475102
                                                         0.769911       0.773726
                                                         0.348157       0.049666
                                                         0.128212       0.051599
                          1       5    4dy2              5.605331       0.640026
                                                         2.113016       0.274300
                                                         0.769911       0.446711
                                                         0.348157       0.028674
                                                         0.128212       0.029790
                          1       5    4dyz              5.605331       1.108557
                                                         2.113016       0.475102
                                                         0.769911       0.773726
                                                         0.348157       0.049666
                                                         0.128212       0.051599
                          1       5    4dz2              5.605331       0.640026
                                                         2.113016       0.274300
                                                         0.769911       0.446711
                                                         0.348157       0.028674
                                                         0.128212       0.029790

     GTH Potential information for                                    GTH-PBE-q4

       Description:                       Goedecker-Teter-Hutter pseudopotential
                                           Goedecker et al., PRB 54, 1703 (1996)
                                          Hartwigsen et al., PRB 58, 3641 (1998)
                                                      Krack, TCA 114, 145 (2005)

       Gaussian exponent of the core charge distribution:               4.364419
       Electronic configuration (s p d ...):                               2   2

       Parameters of the local part of the GTH pseudopotential:

                          rloc        C1          C2          C3          C4
                        0.338471   -8.803674    1.339211

       Parameters of the non-local part of the GTH pseudopotential:

                   l      r(l)      h(i,j,l)

                   0    0.302576    9.622487
                   1    0.291507


 MOLECULE KIND INFORMATION


 All atoms are their own molecule, skipping detailed information


 TOTAL NUMBERS AND MAXIMUM NUMBERS

  Total number of            - Atomic kinds:                                   5
                             - Atoms:                                        212
                             - Shell sets:                                   212
                             - Shells:                                      1244
                             - Primitive Cartesian functions:               1160
                             - Cartesian basis functions:                   4496
                             - Spherical basis functions:                   3892

  Maximum angular momentum of- Orbital basis functions:                        3
                             - Local part of the GTH pseudopotential:          2
                             - Non-local part of the GTH pseudopotential:      4


 MODULE QUICKSTEP:  ATOMIC COORDINATES IN angstrom

  Atom  Kind  Element       X           Y           Z          Z(eff)       Mass

       1     1 N    7    0.006841    2.046693    2.463355      5.00      14.0067
       2     2 Ga  31    0.025561    0.089877    2.798461     13.00      69.7230
       3     1 N    7   -0.002118    0.052329    4.978955      5.00      14.0067
       4     2 Ga  31    0.007180    1.883468    5.750258     13.00      69.7230
       5     1 N    7    0.002777    1.893633    7.756416      5.00      14.0067
       6     2 Ga  31    0.005963    0.048057    8.397837     13.00      69.7230
       7     1 N    7    0.002214    0.046989   10.376466      5.00      14.0067
       8     2 Ga  31    0.002189    1.885624   11.025865     13.00      69.7230
       9     1 N    7    0.000824    1.865222   13.027818      5.00      14.0067
      10     2 Ga  31    0.001516    0.036081   13.819253     13.00      69.7230
      11     1 N    7    0.001140    0.033310   16.030006      5.00      14.0067
      12     2 Ga  31    0.000725    2.032741   16.392000     13.00      69.7230
      13     2 Ga  31    0.005486    3.720271    1.271091     13.00      69.7230
      14     1 N    7   -1.469434    4.624582    2.444554      5.00      14.0067
      15     2 Ga  31   -1.662165    2.794679    3.225345     13.00      69.7230
      16     1 N    7   -1.606478    2.834767    5.210135      5.00      14.0067
      17     2 Ga  31   -1.629988    4.700134    5.761432     13.00      69.7230
      18     1 N    7   -1.613939    4.697161    7.760262      5.00      14.0067
      19     2 Ga  31   -1.592754    2.838322    8.396967     13.00      69.7230
      20     1 N    7   -1.595292    2.839601   10.394685      5.00      14.0067
      21     2 Ga  31   -1.623672    4.698689   11.028482     13.00      69.7230
      22     1 N    7   -1.641331    4.709090   13.029243      5.00      14.0067
      23     2 Ga  31   -1.596030    2.838732   13.573572     13.00      69.7230
      24     1 N    7   -1.613593    2.829843   15.552376      5.00      14.0067
      25     2 Ga  31   -1.495452    4.625540   16.392392     13.00      69.7230
      26     1 N    7    0.000031    3.759630   17.515601      5.00      14.0067
      27     1 N    7   -3.220846    7.580239    2.454264      5.00      14.0067
      28     2 Ga  31   -3.177734    5.606371    2.799861     13.00      69.7230
      29     1 N    7   -3.209456    5.610865    4.980881      5.00      14.0067
      30     2 Ga  31   -3.228700    7.440345    5.743243     13.00      69.7230
      31     1 N    7   -3.216505    7.465373    7.745341      5.00      14.0067
      32     2 Ga  31   -3.213978    5.620268    8.401428     13.00      69.7230
      33     1 N    7   -3.214860    5.619381   10.378002      5.00      14.0067
      34     2 Ga  31   -3.217006    7.459146   11.027876     13.00      69.7230
      35     1 N    7   -3.216503    7.440574   13.021255      5.00      14.0067
      36     2 Ga  31   -3.225055    5.624536   13.820315     13.00      69.7230
      37     1 N    7   -3.227845    5.625701   16.030262      5.00      14.0067
      38     2 Ga  31   -3.218303    7.683996   16.459990     13.00      69.7230
      39     2 Ga  31   -3.247761    9.355761    1.253760     13.00      69.7230
      40     1 N    7   -4.731267   10.194014    2.461725      5.00      14.0067
      41     2 Ga  31   -4.927409    8.341202    3.174406     13.00      69.7230
      42     1 N    7   -4.833248    8.393859    5.167486      5.00      14.0067
      43     2 Ga  31   -4.849970   10.267575    5.732041     13.00      69.7230
      44     1 N    7   -4.832779   10.261408    7.741689      5.00      14.0067
      45     2 Ga  31   -4.813422    8.410655    8.391596     13.00      69.7230
      46     1 N    7   -4.812089    8.409582   10.386476      5.00      14.0067
      47     2 Ga  31   -4.836537   10.267860   11.025045     13.00      69.7230
      48     1 N    7   -4.853638   10.276683   13.019618      5.00      14.0067
      49     2 Ga  31   -4.813869    8.409544   13.583430     13.00      69.7230
      50     1 N    7   -4.841053    8.393724   15.541186      5.00      14.0067
      51     2 Ga  31   -4.644680   10.154331   16.460062     13.00      69.7230
      52     1 N    7   -3.208840    9.336284   17.605952      5.00      14.0067
      53     1 N    7    3.208965    1.902708    2.573846      5.00      14.0067
      54     2 Ga  31    3.205027    0.136293    3.208252     13.00      69.7230
      55     1 N    7    3.216901    0.044251    5.193200      5.00      14.0067
      56     2 Ga  31    3.207287    1.901198    5.821205     13.00      69.7230
      57     1 N    7    3.216437    1.902414    7.803939      5.00      14.0067
      58     2 Ga  31    3.213679    0.035493    8.387167     13.00      69.7230
      59     1 N    7    3.217057    0.034030   10.386021      5.00      14.0067
      60     2 Ga  31    3.217026    1.902369   10.983819     13.00      69.7230
      61     1 N    7    3.214690    1.904741   12.959920      5.00      14.0067
      62     2 Ga  31    3.215877    0.033692   13.584203     13.00      69.7230
      63     1 N    7    3.209948    0.069823   15.543455      5.00      14.0067
      64     2 Ga  31    3.217869    1.903082   15.822275     13.00      69.7230
      65     1 N    7    1.488688    4.631190    2.412060      5.00      14.0067
      66     2 Ga  31    1.686500    2.799651    3.217707     13.00      69.7230
      67     1 N    7    1.612367    2.840833    5.200985      5.00      14.0067
      68     2 Ga  31    1.657379    4.708392    5.760306     13.00      69.7230
      69     1 N    7    1.615388    4.695272    7.767000      5.00      14.0067
      70     2 Ga  31    1.600468    2.837405    8.393898     13.00      69.7230
      71     1 N    7    1.598451    2.838610   10.393691      5.00      14.0067
      72     2 Ga  31    1.626118    4.697753   11.027346     13.00      69.7230
      73     1 N    7    1.642368    4.708797   13.028707      5.00      14.0067
      74     2 Ga  31    1.598219    2.838587   13.572712     13.00      69.7230
      75     1 N    7    1.614617    2.830063   15.551643      5.00      14.0067
      76     2 Ga  31    1.495693    4.624918   16.392086     13.00      69.7230
      77     1 N    7   -0.008631    7.469634    2.653862      5.00      14.0067
      78     2 Ga  31    0.015853    5.604486    3.268855     13.00      69.7230
      79     1 N    7    0.006948    5.630872    5.208836      5.00      14.0067
      80     2 Ga  31   -0.008454    7.466416    5.861858     13.00      69.7230
      81     1 N    7   -0.000993    7.474460    7.822201      5.00      14.0067
      82     2 Ga  31    0.002597    5.602283    8.406271     13.00      69.7230
      83     1 N    7    0.000553    5.605930   10.400037      5.00      14.0067
      84     2 Ga  31   -0.000961    7.475990   10.989749     13.00      69.7230
      85     1 N    7   -0.000018    7.473157   12.963513      5.00      14.0067
      86     2 Ga  31    0.000921    5.605356   13.573541     13.00      69.7230
      87     1 N    7    0.000640    5.625038   15.551957      5.00      14.0067
      88     2 Ga  31   -0.000262    7.477301   15.822384     13.00      69.7230
      89     1 N    7   -1.705016   10.195812    2.469944      5.00      14.0067
      90     2 Ga  31   -1.626070    8.397792    3.258636     13.00      69.7230
      91     1 N    7   -1.598292    8.393877    5.201390      5.00      14.0067
      92     2 Ga  31   -1.588698   10.277702    5.756250     13.00      69.7230
      93     1 N    7   -1.597368   10.262788    7.753117      5.00      14.0067
      94     2 Ga  31   -1.622713    8.409861    8.399810     13.00      69.7230
      95     1 N    7   -1.619239    8.410120   10.392483      5.00      14.0067
      96     2 Ga  31   -1.594335   10.269689   11.031740     13.00      69.7230
      97     1 N    7   -1.576061   10.278729   13.026392      5.00      14.0067
      98     2 Ga  31   -1.620477    8.410642   13.585219     13.00      69.7230
      99     1 N    7   -1.591939    8.387121   15.544320      5.00      14.0067
     100     2 Ga  31   -1.776309   10.163333   16.460061     13.00      69.7230
     101     1 N    7    6.441190    2.019720    2.516402      5.00      14.0067
     102     2 Ga  31    6.411590    0.045946    2.844205     13.00      69.7230
     103     1 N    7    6.436886    0.046696    4.992834      5.00      14.0067
     104     2 Ga  31    6.431701    1.878993    5.768805     13.00      69.7230
     105     1 N    7    6.434139    1.891622    7.764129      5.00      14.0067
     106     2 Ga  31    6.429865    0.047145    8.409200     13.00      69.7230
     107     1 N    7    6.432057    0.046586   10.382500      5.00      14.0067
     108     2 Ga  31    6.432127    1.886649   11.032344     13.00      69.7230
     109     1 N    7    6.432884    1.866878   13.027689      5.00      14.0067
     110     2 Ga  31    6.431817    0.047268   13.841207     13.00      69.7230
     111     1 N    7    6.431702    0.047120   16.033712      5.00      14.0067
     112     2 Ga  31    6.432100    2.092048   16.453697     13.00      69.7230
     113     2 Ga  31    6.457634    3.730614    1.506936     13.00      69.7230
     114     1 N    7    4.946028    4.606609    2.486755      5.00      14.0067
     115     2 Ga  31    4.707854    2.769125    3.266539     13.00      69.7230
     116     1 N    7    4.825630    2.831750    5.222103      5.00      14.0067
     117     2 Ga  31    4.786801    4.711890    5.760613     13.00      69.7230
     118     1 N    7    4.820413    4.693242    7.766501      5.00      14.0067
     119     2 Ga  31    4.832402    2.836754    8.396336     13.00      69.7230
     120     1 N    7    4.835659    2.837054   10.393098      5.00      14.0067
     121     2 Ga  31    4.811494    4.697226   11.026075     13.00      69.7230
     122     1 N    7    4.795144    4.707526   13.021175      5.00      14.0067
     123     2 Ga  31    4.836087    2.839879   13.582369     13.00      69.7230
     124     1 N    7    4.801757    2.827897   15.543419      5.00      14.0067
     125     2 Ga  31    5.001967    4.590021   16.453909     13.00      69.7230
     126     1 N    7    6.432049    3.750975   17.594254      5.00      14.0067
     127     1 N    7    3.205445    7.623093    2.499161      5.00      14.0067
     128     1 N    7    3.221826    5.622658    5.020450      5.00      14.0067
     129     2 Ga  31    3.224488    7.421414    5.771642     13.00      69.7230
     130     1 N    7    3.216116    7.470376    7.769809      5.00      14.0067
     131     2 Ga  31    3.218228    5.616959    8.403062     13.00      69.7230
     132     1 N    7    3.217596    5.618801   10.381394      5.00      14.0067
     133     2 Ga  31    3.218242    7.458372   11.029017     13.00      69.7230
     134     1 N    7    3.217615    7.440540   13.022588      5.00      14.0067
     135     2 Ga  31    3.226443    5.623768   13.818504     13.00      69.7230
     136     1 N    7    3.228495    5.624863   16.030062      5.00      14.0067
     137     2 Ga  31    3.218888    7.680752   16.457770     13.00      69.7230
     138     2 Ga  31    3.235447    9.366066    1.487421     13.00      69.7230
     139     1 N    7    1.710041   10.196391    2.498971      5.00      14.0067
     140     2 Ga  31    1.571124    8.381245    3.312906     13.00      69.7230
     141     1 N    7    1.595656    8.397735    5.231544      5.00      14.0067
     142     2 Ga  31    1.582585   10.281936    5.779643     13.00      69.7230
     143     1 N    7    1.599353   10.264863    7.767398      5.00      14.0067
     144     2 Ga  31    1.619759    8.409444    8.409242     13.00      69.7230
     145     1 N    7    1.618146    8.410694   10.399616      5.00      14.0067
     146     2 Ga  31    1.592737   10.270161   11.035755     13.00      69.7230
     147     1 N    7    1.576270   10.279283   13.029303      5.00      14.0067
     148     2 Ga  31    1.621173    8.410162   13.584573     13.00      69.7230
     149     1 N    7    1.592571    8.386559   15.544793      5.00      14.0067
     150     2 Ga  31    1.773543   10.164827   16.457852     13.00      69.7230
     151     1 N    7    3.208784    9.336232   17.601876      5.00      14.0067
     152     1 N    7    9.666002    1.913335    2.581728      5.00      14.0067
     153     2 Ga  31    9.662152    0.181366    3.267941     13.00      69.7230
     154     1 N    7    9.648586    0.046395    5.223676      5.00      14.0067
     155     2 Ga  31    9.662418    1.910481    5.843154     13.00      69.7230
     156     1 N    7    9.651491    1.904193    7.817035      5.00      14.0067
     157     2 Ga  31    9.651870    0.037177    8.403338     13.00      69.7230
     158     1 N    7    9.648535    0.034724   10.396135      5.00      14.0067
     159     2 Ga  31    9.649383    1.904757   10.986567     13.00      69.7230
     160     1 N    7    9.651180    1.905619   12.961809      5.00      14.0067
     161     2 Ga  31    9.650014    0.033692   13.584089     13.00      69.7230
     162     1 N    7    9.655372    0.069863   15.544358      5.00      14.0067
     163     2 Ga  31    9.647137    1.903623   15.823714     13.00      69.7230
     164     1 N    7    7.941565    4.624416    2.499149      5.00      14.0067
     165     2 Ga  31    8.162493    2.773497    3.275256     13.00      69.7230
     166     1 N    7    8.045945    2.830290    5.229346      5.00      14.0067
     167     2 Ga  31    8.070412    4.706367    5.762258     13.00      69.7230
     168     1 N    7    8.052091    4.695595    7.759903      5.00      14.0067
     169     2 Ga  31    8.032360    2.838434    8.399994     13.00      69.7230
     170     1 N    7    8.030070    2.838514   10.394453      5.00      14.0067
     171     2 Ga  31    8.055452    4.698581   11.027313     13.00      69.7230
     172     1 N    7    8.071421    4.707964   13.021684      5.00      14.0067
     173     2 Ga  31    8.029034    2.840197   13.583169     13.00      69.7230
     174     1 N    7    8.063053    2.827706   15.544061      5.00      14.0067
     175     2 Ga  31    7.862554    4.590112   16.454383     13.00      69.7230
     176     1 N    7    6.393998    7.452975    2.494093      5.00      14.0067
     177     2 Ga  31    6.431760    5.731788    3.260294     13.00      69.7230
     178     1 N    7    6.435499    5.621008    5.212969      5.00      14.0067
     179     2 Ga  31    6.439802    7.476647    5.836433     13.00      69.7230
     180     1 N    7    6.433560    7.474641    7.808534      5.00      14.0067
     181     2 Ga  31    6.433709    5.605832    8.399014     13.00      69.7230
     182     1 N    7    6.434212    5.606432   10.392479      5.00      14.0067
     183     2 Ga  31    6.434190    7.475479   10.985094     13.00      69.7230
     184     1 N    7    6.433180    7.475212   12.956455      5.00      14.0067
     185     2 Ga  31    6.432855    5.606738   13.581287     13.00      69.7230
     186     1 N    7    6.432299    5.637750   15.540524      5.00      14.0067
     187     2 Ga  31    6.432874    7.475294   15.818802     13.00      69.7230
     188     1 N    7    4.725677   10.205909    2.495219      5.00      14.0067
     189     2 Ga  31    4.932480    8.347874    3.268807     13.00      69.7230
     190     1 N    7    4.826299    8.404671    5.217832      5.00      14.0067
     191     2 Ga  31    4.859015   10.279528    5.764891     13.00      69.7230
     192     1 N    7    4.835230   10.266213    7.760962      5.00      14.0067
     193     2 Ga  31    4.817094    8.410458    8.400365     13.00      69.7230
     194     1 N    7    4.815270    8.410168   10.393009      5.00      14.0067
     195     2 Ga  31    4.841050   10.268617   11.027828     13.00      69.7230
     196     1 N    7    4.855968   10.277370   13.021677      5.00      14.0067
     197     2 Ga  31    4.815227    8.409469   13.582552     13.00      69.7230
     198     1 N    7    4.841542    8.393472   15.541487      5.00      14.0067
     199     2 Ga  31    4.647998   10.155464   16.458206     13.00      69.7230
     200     3 O    8    0.188401    3.712197   -0.544073      6.00      15.9994
     201     4 H    1    0.006761    7.470630    1.627329      1.00       1.0079
     202     5 C    6    0.246462    2.419394   -1.167441      4.00      12.0107
     203     4 H    1    1.042059    1.783203   -0.744143      1.00       1.0079
     204     4 H    1   -0.707893    1.874297   -1.084085      1.00       1.0079
     205     4 H    1    0.460228    2.577378   -2.235079      1.00       1.0079
     206     2 Ga  31    3.203025    5.602032    2.488162     13.00      69.7230
     207     3 O    8    3.523709    5.962695    0.231751      6.00      15.9994
     208     4 H    1    3.238305    5.241795   -0.356836      1.00       1.0079
     209     5 C    6    4.857486    6.428725   -0.136189      4.00      12.0107
     210     4 H    1    4.773925    7.182790   -0.931425      1.00       1.0079
     211     4 H    1    5.357982    6.863675    0.763514      1.00       1.0079
     212     4 H    1    5.475231    5.595376   -0.505778      1.00       1.0079




 SCF PARAMETERS         Density guess:                                    ATOMIC
                        --------------------------------------------------------
                        max_scf:                                              80
                        max_scf_history:                                       0
                        max_diis:                                              4
                        --------------------------------------------------------
                        eps_scf:                                        5.00E-06
                        eps_scf_history:                                0.00E+00
                        eps_diis:                                       1.00E-01
                        eps_eigval:                                     1.00E-05
                        --------------------------------------------------------
                        level_shift [a.u.]:                                 0.00
                        --------------------------------------------------------
                        Outer loop SCF in use 
                        No variables optimised in outer loop
                        eps_scf                                         5.00E-06
                        max_scf                                                4
                        No outer loop optimization
                        step_size                                       5.00E-01

 PW_GRID| Information for grid number                                          1
 PW_GRID| Grid distributed over                                    80 processors
 PW_GRID| Real space group dimensions                                    80    1
 PW_GRID| the grid is blocked:                                                NO
 PW_GRID| Cutoff [a.u.]                                                    600.0
 PW_GRID| spherical cutoff:                                                   NO
 PW_GRID|   Bounds   1           -144     143                Points:         288
 PW_GRID|   Bounds   2           -144     143                Points:         288
 PW_GRID|   Bounds   3           -337     337                Points:         675
 PW_GRID| Volume element (a.u.^3)  0.5630E-03     Volume (a.u.^3)     31519.8467
 PW_GRID| Grid span                                                    FULLSPACE
 PW_GRID|   Distribution                         Average         Max         Min
 PW_GRID|   G-Vectors                           699840.0      699840      699840
 PW_GRID|   G-Rays                                2430.0        2430        2430
 PW_GRID|   Real Space Points                   699840.0      777600      583200

 PW_GRID| Information for grid number                                          2
 PW_GRID| Grid distributed over                                    80 processors
 PW_GRID| Real space group dimensions                                    80    1
 PW_GRID| the grid is blocked:                                                NO
 PW_GRID| Cutoff [a.u.]                                                    200.0
 PW_GRID| spherical cutoff:                                                   NO
 PW_GRID|   Bounds   1            -80      79                Points:         160
 PW_GRID|   Bounds   2            -80      79                Points:         160
 PW_GRID|   Bounds   3           -200     199                Points:         400
 PW_GRID| Volume element (a.u.^3)  0.3078E-02     Volume (a.u.^3)     31519.8467
 PW_GRID| Grid span                                                    FULLSPACE
 PW_GRID|   Distribution                         Average         Max         Min
 PW_GRID|   G-Vectors                           128000.0      128160      127840
 PW_GRID|   G-Rays                                 800.0         801         799
 PW_GRID|   Real Space Points                   128000.0      128000      128000

 PW_GRID| Information for grid number                                          3
 PW_GRID| Grid distributed over                                    80 processors
 PW_GRID| Real space group dimensions                                    80    1
 PW_GRID| the grid is blocked:                                                NO
 PW_GRID| Cutoff [a.u.]                                                     66.7
 PW_GRID| spherical cutoff:                                                   NO
 PW_GRID|   Bounds   1            -48      47                Points:          96
 PW_GRID|   Bounds   2            -48      47                Points:          96
 PW_GRID|   Bounds   3           -112     112                Points:         225
 PW_GRID| Volume element (a.u.^3)  0.1520E-01     Volume (a.u.^3)     31519.8467
 PW_GRID| Grid span                                                    FULLSPACE
 PW_GRID|   Distribution                         Average         Max         Min
[...]
 flops   991 x    64 x    50         382370611200     100.0%      0.0%      0.0%
 flops    25 x    13 x    50         382583565000     100.0%      0.0%      0.0%
 flops   242 x    64 x   178         488913289216     100.0%      0.0%      0.0%
 flops   242 x    64 x   183         502646808576     100.0%      0.0%      0.0%
 flops   973 x    32 x    50         516209971200     100.0%      0.0%      0.0%
 flops   973 x    50 x    32         516209971200     100.0%      0.0%      0.0%
 flops    25 x    18 x    13         528854636700     100.0%      0.0%      0.0%
 flops    13 x    18 x    25         528854636700     100.0%      0.0%      0.0%
 flops   242 x    64 x   195         535607255040     100.0%      0.0%      0.0%
 flops   242 x    32 x    32         547281985536     100.0%      0.0%      0.0%
 flops   955 x    32 x   178         584004044800     100.0%      0.0%      0.0%
 flops   955 x    32 x   183         600408652800     100.0%      0.0%      0.0%
 flops   991 x    32 x   178         606018856960     100.0%      0.0%      0.0%
 flops   991 x    32 x   183         623041858560     100.0%      0.0%      0.0%
 flops   955 x    32 x   195         639779712000     100.0%      0.0%      0.0%
 flops   991 x    32 x   195         663897062400     100.0%      0.0%      0.0%
 flops    25 x    25 x    50         733512500000     100.0%      0.0%      0.0%
 flops     5 x    32 x    25         744355136000     100.0%      0.0%      0.0%
 flops    25 x    32 x     5         744355136000     100.0%      0.0%      0.0%
 flops   973 x    64 x    50         750850867200     100.0%      0.0%      0.0%
 flops   973 x    50 x    64         750850867200     100.0%      0.0%      0.0%
 flops   242 x    64 x    32         796046524416     100.0%      0.0%      0.0%
 flops   242 x    32 x    64         796046524416     100.0%      0.0%      0.0%
 flops   955 x    64 x   178         849460428800     100.0%      0.0%      0.0%
 flops   955 x    64 x   183         873321676800     100.0%      0.0%      0.0%
 flops   991 x    64 x   178         881481973760     100.0%      0.0%      0.0%
 flops   991 x    64 x   183         906242703360     100.0%      0.0%      0.0%
 flops   955 x    64 x   195         930588672000     100.0%      0.0%      0.0%
 flops   224 x    32 x   178         933379915776     100.0%      0.0%      0.0%
 flops   224 x    32 x   183         959598452736     100.0%      0.0%      0.0%
 flops   991 x    64 x   195         965668454400     100.0%      0.0%      0.0%
 flops    25 x    18 x    25        1004625000000     100.0%      0.0%      0.0%
 flops   224 x    32 x   195        1022522941440     100.0%      0.0%      0.0%
 flops   242 x    64 x    64        1157885853696     100.0%      0.0%      0.0%
 flops   973 x    32 x   178        1190022901760     100.0%      0.0%      0.0%
 flops   973 x    32 x   183        1223450511360     100.0%      0.0%      0.0%
 flops   973 x    32 x   195        1303676774400     100.0%      0.0%      0.0%
 flops   224 x    64 x   178        1357643513856     100.0%      0.0%      0.0%
 flops    13 x    13 x    32        1358620257280     100.0%      0.0%      0.0%
 flops   224 x    64 x   183        1395779567616     100.0%      0.0%      0.0%
 flops   224 x    64 x   195        1487306096640     100.0%      0.0%      0.0%
 flops   224 x    32 x    32        1519725182976     100.0%      0.0%      0.0%
 flops   973 x    64 x   178        1730942402560     100.0%      0.0%      0.0%
 flops   973 x    64 x   183        1779564380160     100.0%      0.0%      0.0%
 flops   955 x    32 x    32        1783444439040     100.0%      0.0%      0.0%
 flops   991 x    32 x    32        1850673758208     100.0%      0.0%      0.0%
 flops   973 x    64 x   195        1896257126400     100.0%      0.0%      0.0%
 flops    13 x    13 x    64        1976174919680     100.0%      0.0%      0.0%
 flops   224 x    32 x    64        2210509357056     100.0%      0.0%      0.0%
 flops   224 x    64 x    32        2210509357056     100.0%      0.0%      0.0%
 flops   955 x    32 x    64        2594101002240     100.0%      0.0%      0.0%
 flops   955 x    64 x    32        2594101002240     100.0%      0.0%      0.0%
 flops    13 x    25 x    32        2689637808000     100.0%      0.0%      0.0%
 flops   991 x    32 x    64        2691889102848     100.0%      0.0%      0.0%
 flops   991 x    64 x    32        2691889102848     100.0%      0.0%      0.0%
 flops    25 x    13 x    32        2693388297600     100.0%      0.0%      0.0%
 flops   224 x    64 x    64        3215286337536     100.0%      0.0%      0.0%
 flops   973 x    32 x    32        3634118197248     100.0%      0.0%      0.0%
 flops   955 x    64 x    64        3773237821440     100.0%      0.0%      0.0%
 flops    13 x    25 x    64        3912200448000     100.0%      0.0%      0.0%
 flops   991 x    64 x    64        3915475058688     100.0%      0.0%      0.0%
 flops    25 x    13 x    64        3917655705600     100.0%      0.0%      0.0%
 flops    25 x    25 x    32        5163928000000     100.0%      0.0%      0.0%
 flops   973 x    64 x    32        5285990105088     100.0%      0.0%      0.0%
 flops   973 x    32 x    64        5285990105088     100.0%      0.0%      0.0%
 flops    25 x    25 x    64        7511168000000     100.0%      0.0%      0.0%
 flops   973 x    64 x    64        7688712880128     100.0%      0.0%      0.0%
 flops    13 x    32 x    13       13148264636416     100.0%      0.0%      0.0%
 flops    25 x    32 x    13       26325208582400     100.0%      0.0%      0.0%
 flops    13 x    32 x    25       26325208582400     100.0%      0.0%      0.0%
 flops    25 x    32 x    25       50008000000000     100.0%      0.0%      0.0%
 flops inhomo. stacks              89067490879584     100.0%      0.0%      0.0%
 flops total                       333.387200E+12     100.0%      0.0%      0.0%
 flops max/rank                      5.787155E+12     100.0%      0.0%      0.0%
 matmuls inhomo. stacks                   8939840     100.0%      0.0%      0.0%
 matmuls total                         6563758060     100.0%      0.0%      0.0%
 number of processed stacks             119774944     100.0%      0.0%      0.0%
 average stack size                                    54.8       0.0       0.0
 marketing flops                   355.960111E+12
 -------------------------------------------------------------------------------
 # multiplications                          31657
 max memory usage/rank               1.496326E+09
 # max total images/rank                        5
 # max 3D layers                                1
 # MPI messages exchanged               288711840
 MPI messages size (bytes):
  total size                        35.262327E+12
  min size                           0.000000E+00
  max size                           1.894792E+06
  average size                     122.136758E+03
 MPI breakdown and total messages size (bytes):
             size <=      128             1830080                        0
       128 < size <=     8192            38329346             313994002432
      8192 < size <=    32768            88344414            1802243584576
     32768 < size <=   131072           126131120            9145615791488
    131072 < size <=  4194304            34076880           24007921549600
   4194304 < size <= 16777216                   0                        0
  16777216 < size                               0                        0
 -------------------------------------------------------------------------------

 *** WARNING in dbcsr/mm/dbcsr_mm.F:268 :: Using a non-square number of ***
 *** MPI ranks might lead to poor performance.                          ***
 *** Used ranks: 80                                                     ***
 *** Suggested: 81 169                                                  ***

 -------------------------------------------------------------------------------
 
 MEMORY| Estimated peak process memory [MiB]                                1450

 -------------------------------------------------------------------------------
 ----                             MULTIGRID INFO                            ----
 -------------------------------------------------------------------------------
 count for grid        1:        1178489          cutoff [a.u.]          600.00
 count for grid        2:        7252366          cutoff [a.u.]          200.00
 count for grid        3:        6433089          cutoff [a.u.]           66.67
 count for grid        4:        9176461          cutoff [a.u.]           22.22
 count for grid        5:        8170007          cutoff [a.u.]            7.41
 total gridlevel count  :       32210412

 -------------------------------------------------------------------------------
 -                                                                             -
 -                         MESSAGE PASSING PERFORMANCE                         -
 -                                                                             -
 -------------------------------------------------------------------------------

 ROUTINE             CALLS      AVE VOLUME [Bytes]
 MP_Group             2753
 MP_Bcast            23486                  17567.
 MP_Allreduce       230112                    208.
 MP_Sync              1221
 MP_Alltoall        170714                5576343.
 MP_SendRecv         17064                   5937.
 MP_ISendRecv       813384                 133520.
 MP_Wait           7048850
 MP_comm_split        1216
 MP_ISend          8107888                 115894.
 MP_IRecv          8110328                 115798.
 MP_Recv              1007                 162816.
 MP_Memory         3528150
 -------------------------------------------------------------------------------


 -------------------------------------------------------------------------------
 -                                                                             -
 -                           R E F E R E N C E S                               -
 -                                                                             -
 -------------------------------------------------------------------------------
 
 CP2K version 7.0 (Development Version), the CP2K developers group (2018).
 CP2K is freely available from https://www.cp2k.org/ .

 Schuett, Ole; Messmer, Peter; Hutter, Juerg; VandeVondele, Joost. 
 Electronic Structure Calculations on Graphics Processing Units, John Wiley & Sons, Ltd, 173-190 (2016). 
 GPU-Accelerated Sparse Matrix-Matrix Multiplication for Linear Scaling Density Functional Theory.
 http://dx.doi.org/10.1002/9781118670712.ch8


 Borstnik, U; VandeVondele, J; Weber, V; Hutter, J. 
 PARALLEL COMPUTING, 40 (5-6), 47-58 (2014). 
 Sparse matrix multiplication: The distributed block-compressed sparse
 row library.
 http://dx.doi.org/10.1016/j.parco.2014.03.012


 Hutter, J; Iannuzzi, M; Schiffmann, F; VandeVondele, J. 
 WILEY INTERDISCIPLINARY REVIEWS-COMPUTATIONAL MOLECULAR SCIENCE, 4 (1), 15-25 (2014). 
 CP2K: atomistic simulations of condensed matter systems.
 http://dx.doi.org/10.1002/wcms.1159


 Grimme, S; Ehrlich, S; Goerigk, L. 
 JOURNAL OF COMPUTATIONAL CHEMISTRY, 32, 1456 (2011). 
 Effect of the damping function in dispersion corrected density functional theory.
 http://dx.doi.org/10.1002/jcc.21759


 Grimme, S; Antony, J; Ehrlich, S; Krieg, H. 
 JOURNAL OF CHEMICAL PHYSICS, 132 (15), 154104 (2010). 
 A consistent and accurate ab initio parametrization of density
 functional dispersion correction (DFT-D) for the 94 elements H-Pu.
 http://dx.doi.org/10.1063/1.3382344


 VandeVondele, J; Hutter, J. 
 JOURNAL OF CHEMICAL PHYSICS, 127 (11), 114105 (2007). 
 Gaussian basis sets for accurate calculations on molecular systems in
 gas and condensed phases.
 http://dx.doi.org/10.1063/1.2770708


 Krack, M. 
 THEORETICAL CHEMISTRY ACCOUNTS, 114 (1-3), 145-152 (2005). 
 Pseudopotentials for H to Kr optimized for gradient-corrected
 exchange-correlation functionals.
 http://dx.doi.org/10.1007/s00214-005-0655-y


 VandeVondele, J; Krack, M; Mohamed, F; Parrinello, M; Chassaing, T;
 Hutter, J. COMPUTER PHYSICS COMMUNICATIONS, 167 (2), 103-128 (2005). 
 QUICKSTEP: Fast and accurate density functional calculations using a
 mixed Gaussian and plane waves approach.
 http://dx.doi.org/10.1016/j.cpc.2004.12.014


 Frigo, M; Johnson, SG. 
 PROCEEDINGS OF THE IEEE, 93 (2), 216-231 (2005). 
 The design and implementation of FFTW3.
 http://dx.doi.org/10.1109/JPROC.2004.840301


 Kolafa, J. 
 JOURNAL OF COMPUTATIONAL CHEMISTRY, 25 (3), 335-342 (2004). 
 Time-reversible always stable predictor-corrector method for molecular dynamics of polarizable molecules.
 http://dx.doi.org/10.1002/jcc.10385


 VandeVondele, J; Hutter, J. 
 JOURNAL OF CHEMICAL PHYSICS, 118 (10), 4365-4369 (2003). 
 An efficient orbital transformation method for electronic structure
 calculations.
 http://dx.doi.org/10.1063/1.1543154


 Hartwigsen, C; Goedecker, S; Hutter, J. 
 PHYSICAL REVIEW B, 58 (7), 3641-3662 (1998). 
 Relativistic separable dual-space Gaussian pseudopotentials from H to Rn.
 http://dx.doi.org/10.1103/PhysRevB.58.3641


 Lippert, G; Hutter, J; Parrinello, M. 
 MOLECULAR PHYSICS, 92 (3), 477-487 (1997). 
 A hybrid Gaussian and plane wave density functional scheme.
 http://dx.doi.org/10.1080/002689797170220


 Perdew, JP; Burke, K; Ernzerhof, M. 
 PHYSICAL REVIEW LETTERS, 77 (18), 3865-3868 (1996). 
 Generalized gradient approximation made simple.
 http://dx.doi.org/10.1103/PhysRevLett.77.3865


 Goedecker, S; Teter, M; Hutter, J. 
 PHYSICAL REVIEW B, 54 (3), 1703-1710 (1996). 
 Separable dual-space Gaussian pseudopotentials.
 http://dx.doi.org/10.1103/PhysRevB.54.1703


 -------------------------------------------------------------------------------
 -                                                                             -
 -                                T I M I N G                                  -
 -                                                                             -
 -------------------------------------------------------------------------------
 SUBROUTINE                       CALLS  ASD         SELF TIME        TOTAL TIME
                                MAXIMUM       AVERAGE  MAXIMUM  AVERAGE  MAXIMUM
 CP2K                                 1  1.0     0.47     0.51 15798.40 15798.43
 cp_geo_opt                           1  2.0     0.14     0.15 15796.77 15796.78
 geoopt_bfgs                          1  3.0     0.19     0.30 15796.63 15796.64
 cp_eval_at                          55  4.0     0.06     0.09 15773.23 15773.25
 qs_forces                           54  5.0     0.03     0.06 15709.39 15709.41
 qs_energies                         55  6.0     0.04     0.07 14673.26 14673.37
 scf_env_do_scf                      55  7.0     0.03     0.08 13958.21 13958.25
 scf_env_do_scf_inner_loop         1053  8.0     0.08     0.18 12758.21 12758.26
 rebuild_ks_matrix                 1107  9.9     0.01     0.02  6888.23  6889.47
 qs_ks_build_kohn_sham_matrix      1107 10.9     0.41     0.73  6888.23  6889.46
 qs_ks_update_qs_env               1109  9.0     0.01     0.02  5913.96  5915.16
 qs_rho_update_rho                 1108  9.0     0.02     0.05  5723.69  5726.69
 calculate_rho_elec                2216 10.0  2872.58  2927.26  5723.67  5726.65
 sum_up_and_integrate               608 11.7     9.08    10.13  3742.78  3743.80
 integrate_v_rspace                1216 12.7  2083.19  2175.01  3733.68  3735.97
 pw_transfer                      34866 13.4     3.75     4.22  3485.76  3500.64
 fft_wrap_pw1pw2                  32652 14.4     0.38     0.45  3468.34  3483.44
 fft_wrap_pw1pw2_600              18924 15.7   209.14   235.69  3223.22  3238.99
 fft3d_ps                         32652 16.4   971.60  1070.51  2979.90  3012.16
 rs_pw_transfer                   17434 13.0     0.23     0.28  2782.80  2822.90
 density_rs2pw                     2216 11.0     0.18     0.22  2557.61  2614.31
 qs_vxc_create                     1107 11.9     0.06     0.08  2452.01  2452.63
 dbcsr_multiply_generic           31657 13.8     2.08     2.85  2179.27  2183.69
 mp_waitall_1                   6420706 16.7  1936.81  2010.62  1936.81  2010.62
 mp_alltoall_z22v                 32652 18.4  1734.71  1938.61  1734.71  1938.61
 qs_scf_new_mos                    1053  9.0     0.01     0.02  1926.67  1928.52
 qs_scf_loop_do_ot                 1053 10.0     0.05     0.12  1926.66  1928.51
 xc_vxc_pw_create                   608 12.7   124.48   140.63  1813.20  1813.52
 ot_scf_mini                       1053 11.0     0.19     0.42  1768.66  1769.81
 multiply_cannon                  31657 14.8    10.08    10.69  1694.05  1725.17
 xc_rho_set_and_dset_create        1107 13.9    19.47    20.85  1332.47  1353.27
 mp_waitany                      628144 14.9  1228.57  1314.12  1228.57  1314.12
 potential_pw2rs                   1216 13.7     0.96     1.08  1309.05  1311.53
 rs_pw_transfer_RS2PW_600          2326 13.0   464.15   506.82  1176.06  1216.35
 x_to_yz                          14221 18.0   154.40   178.31  1138.01  1212.02
 init_scf_loop                       56  8.0     0.00     0.02  1197.87  1197.92
 multiply_cannon_metrocomm3      633140 15.8     1.70     1.82  1009.08  1148.77
 qs_ks_update_qs_env_forces          54  6.0     0.00     0.00   984.92   985.06
 yz_to_x                          11567 16.8    95.39   100.24   844.93   943.43
 ot_mini                           1053 12.0     0.01     0.03   924.60   925.89
 rs_pw_transfer_PW2RS_600          1380 15.2   308.86   332.11   778.58   796.92
 prepare_preconditioner              56  9.0     0.00     0.00   648.84   648.94
 xc_exc_calc                        499 13.0     2.43     2.75   638.76   639.07
 make_preconditioner                112 10.0     0.01     0.02   598.92   599.01
 qs_ot_get_derivative              1108 13.0     0.02     0.05   585.44   586.64
 make_full_all                      112 11.0     0.05     0.07   548.12   548.32
 multiply_cannon_metrocomm1      633140 15.8     1.94     2.08   391.32   498.48
 mp_alltoall_d11v                 33124 15.1   435.46   493.14   435.46   493.14
 rs_distribute_matrix              3540 12.0     4.34     8.97   409.70   465.57
 init_scf_run                        55  7.0     0.00     0.01   444.83   444.83
 scf_env_initial_rho_setup           55  8.0     0.04     0.08   444.82   444.83
 wfi_extrapolate                     55  9.0     0.03     0.08   437.77   437.79
 cp_fm_syevd                       1216 13.8     0.01     0.01   425.60   426.26
 cp_fm_redistribute_end            1216 14.8   137.29   413.24   139.88   415.13
 cp_fm_syevd_base                  1216 14.4   273.57   399.18   273.57   399.18
 apply_preconditioner_dbcsr        1220 14.0     0.00     0.00   360.07   361.09
 apply_all                         1220 15.0     0.14     0.25   360.06   361.09
 qs_ot_get_p                       2218 11.9     0.02     0.05   345.83   350.38
 ot_new_cg_direction                554 13.0     0.02     0.03   332.09   332.16
 mp_sum_d                         32564 14.3   253.45   325.33   253.45   325.33
 -------------------------------------------------------------------------------

 The number of warnings for this run is : 1
 
 -------------------------------------------------------------------------------
  **** **** ******  **  PROGRAM ENDED AT                 2019-07-12 09:16:47.634
 ***** ** ***  *** **   PROGRAM RAN ON            blg9235.int.ets1.calculquebec.
 **    ****   ******    PROGRAM RAN BY                                       rzk
 ***** **    ** ** **   PROGRAM PROCESS ID                                243112
  **** **  *******  **  PROGRAM STOPPED IN /lustre04/scratch/rzk/rzk/GaN-carbene
                                           /443-adatoms-both-2x2/09-BondBreaking
                                           -CH/03-0501-CH-to-Nsur-PES
