 DBCSR| Multiplication driver                                               BLAS
 DBCSR| Multrec recursion limit                                              512
 DBCSR| Multiplication stack size                                           1000
 DBCSR| Maximum elements for images                                    UNLIMITED
 DBCSR| Multiplicative factor virtual images                                   1
 DBCSR| Multiplication size stacks                                             3
 DBCSR| Number of 3D layers                                               SINGLE
 DBCSR| Use MPI memory allocation                                              T
 DBCSR| Use RMA algorithm                                                      F
 DBCSR| Use Communication thread                                               T
 DBCSR| Communication thread load                                             87


  **** **** ******  **  PROGRAM STARTED AT               2019-07-09 19:12:01.860
 ***** ** ***  *** **   PROGRAM STARTED ON        blg7124.int.ets1.calculquebec.
 **    ****   ******    PROGRAM STARTED BY                                   rzk
 ***** **    ** ** **   PROGRAM PROCESS ID                                 26874
  **** **  *******  **  PROGRAM STARTED IN /lustre04/scratch/rzk/rzk/GaN-carbene
                                           /443-adatoms-both-2x2/09-BondBreaking
                                           -CH/03-0501-CH-to-Nsur-PES

 CP2K| version string:                    CP2K version 7.0 (Development Version)
 CP2K| source code revision number:                                    svn:18619
 CP2K| cp2kflags: libint fftw3 libxc parallel mpi3 scalapack mkl                
 CP2K| is freely available from                            https://www.cp2k.org/
 CP2K| Program compiled at                          Sun Apr  7 00:48:11 EDT 2019
 CP2K| Program compiled on                      beluga2.int.ets1.calculquebec.ca
 CP2K| Program compiled for                    Beluga-Linux-x86-64-intel-openmpi
 CP2K| Data directory path    /home/rzk/projects/def-rzk/group/cp2k/cp2k-mcgill/
 CP2K| Input file name                                            TEST-1.restart
 
 GLOBAL| Force Environment number                                              1
 GLOBAL| Basis set file name                                        BASIS_MOLOPT
 GLOBAL| Potential file name                                      GTH_POTENTIALS
 GLOBAL| MM Potential file name                                     MM_POTENTIAL
 GLOBAL| Coordinate file name                                      __STD_INPUT__
 GLOBAL| Method name                                                        CP2K
 GLOBAL| Project name                                                       TEST
 GLOBAL| Preferred FFT library                                             FFTW3
 GLOBAL| Preferred diagonalization lib.                                       SL
 GLOBAL| Run type                                                        GEO_OPT
 GLOBAL| All-to-all communication in single precision                          F
 GLOBAL| FFTs using library dependent lengths                                  F
 GLOBAL| Global print level                                               MEDIUM
 GLOBAL| MPI I/O enabled                                                       T
 GLOBAL| Total number of message passing processes                            80
 GLOBAL| Number of threads for this process                                    1
 GLOBAL| This output is from process                                           0
 GLOBAL| CPU model name :  Intel(R) Xeon(R) Gold 6148 CPU @ 2.40GHz

 MEMORY| system memory details [Kb]
 MEMORY|                        rank 0           min           max       average
 MEMORY| MemTotal            196614300     196614300     196614300     196614300
 MEMORY| MemFree             180120864     172976776     180123252     176591719
 MEMORY| Buffers                     0             0            76            38
 MEMORY| Cached                1655796       1365228       1655796       1510512
 MEMORY| Slab                  2571340       2571340       4089168       3330254
 MEMORY| SReclaimable           402072        308832        402072        355452
 MEMORY| MemLikelyFree       182178732     174650912     182181120     178457721


 *** Fundamental physical constants (SI units) ***

 *** Literature: B. J. Mohr and B. N. Taylor,
 ***             CODATA recommended values of the fundamental physical
 ***             constants: 2006, Web Version 5.1
 ***             http://physics.nist.gov/constants

 Speed of light in vacuum [m/s]                             2.99792458000000E+08
 Magnetic constant or permeability of vacuum [N/A**2]       1.25663706143592E-06
 Electric constant or permittivity of vacuum [F/m]          8.85418781762039E-12
 Planck constant (h) [J*s]                                  6.62606896000000E-34
 Planck constant (h-bar) [J*s]                              1.05457162825177E-34
 Elementary charge [C]                                      1.60217648700000E-19
 Electron mass [kg]                                         9.10938215000000E-31
 Electron g factor [ ]                                     -2.00231930436220E+00
 Proton mass [kg]                                           1.67262163700000E-27
 Fine-structure constant                                    7.29735253760000E-03
 Rydberg constant [1/m]                                     1.09737315685270E+07
 Avogadro constant [1/mol]                                  6.02214179000000E+23
 Boltzmann constant [J/K]                                   1.38065040000000E-23
 Atomic mass unit [kg]                                      1.66053878200000E-27
 Bohr radius [m]                                            5.29177208590000E-11

 *** Conversion factors ***

 [u] -> [a.u.]                                              1.82288848426455E+03
 [Angstrom] -> [Bohr] = [a.u.]                              1.88972613288564E+00
 [a.u.] = [Bohr] -> [Angstrom]                              5.29177208590000E-01
 [a.u.] -> [s]                                              2.41888432650478E-17
 [a.u.] -> [fs]                                             2.41888432650478E-02
 [a.u.] -> [J]                                              4.35974393937059E-18
 [a.u.] -> [N]                                              8.23872205491840E-08
 [a.u.] -> [K]                                              3.15774647902944E+05
 [a.u.] -> [kJ/mol]                                         2.62549961709828E+03
 [a.u.] -> [kcal/mol]                                       6.27509468713739E+02
 [a.u.] -> [Pa]                                             2.94210107994716E+13
 [a.u.] -> [bar]                                            2.94210107994716E+08
 [a.u.] -> [atm]                                            2.90362800883016E+08
 [a.u.] -> [eV]                                             2.72113838565563E+01
 [a.u.] -> [Hz]                                             6.57968392072181E+15
 [a.u.] -> [1/cm] (wave numbers)                            2.19474631370540E+05
 [a.u./Bohr**2] -> [1/cm]                                   5.14048714338585E+03
 
          ----------------------------------------------------------------------
 COLVARS| COLVAR INPUT INDEX:        1
 COLVARS| BOND          >>> ATOMS:                                   176     211
          ----------------------------------------------------------------------

 CELL_TOP| Volume [angstrom^3]:                                         4586.323
 CELL_TOP| Vector a [angstrom    12.864     0.000     0.000    |a| =      12.864
 CELL_TOP| Vector b [angstrom    -6.432    11.141     0.000    |b| =      12.864
 CELL_TOP| Vector c [angstrom     0.000     0.000    32.000    |c| =      32.000
 CELL_TOP| Angle (b,c), alpha [degree]:                                   90.000
 CELL_TOP| Angle (a,c), beta  [degree]:                                   90.000
 CELL_TOP| Angle (a,b), gamma [degree]:                                  120.000
 CELL_TOP| Numerically orthorhombic:                                          NO
 RESTRAINT| Active restraint on COLLECTIVE section Nr.     1. K [a.u.]= 2.000000
 
 GENERATE|  Preliminary Number of Bonds generated:                             0
 GENERATE|  Achieved consistency in connectivity generation.

 CELL| Volume [angstrom^3]:                                             4586.323
 CELL| Vector a [angstrom]:      12.864     0.000     0.000    |a| =      12.864
 CELL| Vector b [angstrom]:      -6.432    11.141     0.000    |b| =      12.864
 CELL| Vector c [angstrom]:       0.000     0.000    32.000    |c| =      32.000
 CELL| Angle (b,c), alpha [degree]:                                       90.000
 CELL| Angle (a,c), beta  [degree]:                                       90.000
 CELL| Angle (a,b), gamma [degree]:                                      120.000
 CELL| Numerically orthorhombic:                                              NO

 CELL_REF| Volume [angstrom^3]:                                         4670.759
 CELL_REF| Vector a [angstrom    12.982     0.000     0.000    |a| =      12.982
 CELL_REF| Vector b [angstrom    -6.491    11.243     0.000    |b| =      12.982
 CELL_REF| Vector c [angstrom     0.000     0.000    32.000    |c| =      32.000
 CELL_REF| Angle (b,c), alpha [degree]:                                   90.000
 CELL_REF| Angle (a,c), beta  [degree]:                                   90.000
 CELL_REF| Angle (a,b), gamma [degree]:                                  120.000
 CELL_REF| Numerically orthorhombic:                                          NO

 *******************************************************************************
 *******************************************************************************
 **                                                                           **
 **     #####                         ##              ##                      **
 **    ##   ##            ##          ##              ##                      **
 **   ##     ##                       ##            ######                    **
 **   ##     ##  ##   ##  ##   #####  ##  ##   ####   ##    #####    #####    **
 **   ##     ##  ##   ##  ##  ##      ## ##   ##      ##   ##   ##  ##   ##   **
 **   ##  ## ##  ##   ##  ##  ##      ####     ###    ##   ######   ######    **
 **    ##  ###   ##   ##  ##  ##      ## ##      ##   ##   ##       ##        **
 **     #######   #####   ##   #####  ##  ##  ####    ##    #####   ##        **
 **           ##                                                    ##        **
 **                                                                           **
 **                                                ... make the atoms dance   **
 **                                                                           **
 **            Copyright (C) by CP2K developers group (2000 - 2018)           **
 **                                                                           **
 *******************************************************************************

 DFT| Spin unrestricted (spin-polarized) Kohn-Sham calculation               UKS
 DFT| Multiplicity                                                             1
 DFT| Number of spin states                                                    2
 DFT| Charge                                                                   0
 DFT| Self-interaction correction (SIC)                                       NO
 DFT| Cutoffs: density                                              1.000000E-10
 DFT|          gradient                                             1.000000E-10
 DFT|          tau                                                  1.000000E-10
 DFT|          cutoff_smoothing_range                               0.000000E+00
 DFT| XC density smoothing                                                  NONE
 DFT| XC derivatives                                                          PW
 FUNCTIONAL| ROUTINE=NEW
 FUNCTIONAL| PBE:
 FUNCTIONAL| J.P.Perdew, K.Burke, M.Ernzerhof, Phys. Rev. Letter, vol. 77, n 18,
 FUNCTIONAL|  pp. 3865-3868, (1996){spin polarized}                             
 vdW POTENTIAL|                                                   Pair Potential
 vdW POTENTIAL|          DFT-D3 (Version 3.1)
 vdW POTENTIAL|          Potential Form: S. Grimme et al, JCP 132: 154104 (2010)
 vdW POTENTIAL|          Zero Damping
 vdW POTENTIAL|          Cutoff Radius [Bohr]:                             18.90
 vdW POTENTIAL|          s6 Scaling Factor:                               1.0000
 vdW POTENTIAL|          sr6 Scaling Factor:                              1.2170
 vdW POTENTIAL|          s8 Scaling Factor:                               0.7220
 vdW POTENTIAL|          Cutoff for CN calculation:                   0.1000E-05

 QS| Method:                                                                 GPW
 QS| Density plane wave grid type                        NON-SPHERICAL FULLSPACE
 QS| Number of grid levels:                                                    5
 QS| Density cutoff [a.u.]:                                                600.0
 QS| Multi grid cutoff [a.u.]: 1) grid level                               600.0
 QS|                           2) grid level                               200.0
 QS|                           3) grid level                                66.7
 QS|                           4) grid level                                22.2
 QS|                           5) grid level                                 7.4
 QS| Grid level progression factor:                                          3.0
 QS| Relative density cutoff [a.u.]:                                        20.0
 QS| Consistent realspace mapping and integration 
 QS| Interaction thresholds: eps_pgf_orb:                                1.0E-07
 QS|                         eps_filter_matrix:                          0.0E+00
 QS|                         eps_core_charge:                            1.0E-16
 QS|                         eps_rho_gspace:                             1.0E-14
 QS|                         eps_rho_rspace:                             1.0E-14
 QS|                         eps_gvg_rspace:                             1.0E-07
 QS|                         eps_ppl:                                    1.0E-02
 QS|                         eps_ppnl:                                   1.0E-09


 ATOMIC KIND INFORMATION

  1. Atomic kind: N                                     Number of atoms:     100

     Orbital Basis Set                                        DZVP-MOLOPT-SR-GTH

       Number of orbital shell sets:                                           1
       Number of orbital shells:                                               5
       Number of primitive Cartesian functions:                                5
       Number of Cartesian basis functions:                                   14
       Number of spherical basis functions:                                   13
       Norm type:                                                              2

       Normalised Cartesian orbitals:

                        Set   Shell   Orbital            Exponent    Coefficient

                          1       1    2s                7.341988       0.360561
                                                         2.542637       0.139177
                                                         0.888575      -0.289383
                                                         0.333802      -0.182244
                                                         0.112012      -0.019197

                          1       2    3s                7.341988       0.282000
                                                         2.542637       0.177875
                                                         0.888575      -0.278381
                                                         0.333802       0.008577
                                                         0.112012       0.154176

                          1       3    3px               7.341988      -1.188719
                                                         2.542637      -0.973969
                                                         0.888575      -0.501079
                                                         0.333802      -0.144894
                                                         0.112012      -0.013986
                          1       3    3py               7.341988      -1.188719
                                                         2.542637      -0.973969
                                                         0.888575      -0.501079
                                                         0.333802      -0.144894
                                                         0.112012      -0.013986
                          1       3    3pz               7.341988      -1.188719
                                                         2.542637      -0.973969
                                                         0.888575      -0.501079
                                                         0.333802      -0.144894
                                                         0.112012      -0.013986

                          1       4    4px               7.341988      -0.094798
                                                         2.542637       0.050069
                                                         0.888575      -0.114797
                                                         0.333802       0.144793
                                                         0.112012       0.066710
                          1       4    4py               7.341988      -0.094798
                                                         2.542637       0.050069
                                                         0.888575      -0.114797
                                                         0.333802       0.144793
                                                         0.112012       0.066710
                          1       4    4pz               7.341988      -0.094798
                                                         2.542637       0.050069
                                                         0.888575      -0.114797
                                                         0.333802       0.144793
                                                         0.112012       0.066710

                          1       5    4dx2              7.341988       1.354688
                                                         2.542637       0.690378
                                                         0.888575       0.855359
                                                         0.333802       0.091746
                                                         0.112012       0.001253
                          1       5    4dxy              7.341988       2.346389
                                                         2.542637       1.195770
                                                         0.888575       1.481524
                                                         0.333802       0.158910
                                                         0.112012       0.002169
                          1       5    4dxz              7.341988       2.346389
                                                         2.542637       1.195770
                                                         0.888575       1.481524
                                                         0.333802       0.158910
                                                         0.112012       0.002169
                          1       5    4dy2              7.341988       1.354688
                                                         2.542637       0.690378
                                                         0.888575       0.855359
                                                         0.333802       0.091746
                                                         0.112012       0.001253
                          1       5    4dyz              7.341988       2.346389
                                                         2.542637       1.195770
                                                         0.888575       1.481524
                                                         0.333802       0.158910
                                                         0.112012       0.002169
                          1       5    4dz2              7.341988       1.354688
                                                         2.542637       0.690378
                                                         0.888575       0.855359
                                                         0.333802       0.091746
                                                         0.112012       0.001253

     GTH Potential information for                                    GTH-PBE-q5

       Description:                       Goedecker-Teter-Hutter pseudopotential
                                           Goedecker et al., PRB 54, 1703 (1996)
                                          Hartwigsen et al., PRB 58, 3641 (1998)
                                                      Krack, TCA 114, 145 (2005)

       Gaussian exponent of the core charge distribution:               6.208322
       Electronic configuration (s p d ...):                               2   3

       Parameters of the local part of the GTH pseudopotential:

                          rloc        C1          C2          C3          C4
                        0.283791  -12.415226    1.868096

       Parameters of the non-local part of the GTH pseudopotential:

                   l      r(l)      h(i,j,l)

                   0    0.255405   13.630263
                   1    0.245495

  2. Atomic kind: Ga                                    Number of atoms:     100

     Orbital Basis Set                                        DZVP-MOLOPT-SR-GTH

       Number of orbital shell sets:                                           1
       Number of orbital shells:                                               7
       Number of primitive Cartesian functions:                                6
       Number of Cartesian basis functions:                                   30
       Number of spherical basis functions:                                   25
       Norm type:                                                              2

       Normalised Cartesian orbitals:

                        Set   Shell   Orbital            Exponent    Coefficient

                          1       1    2s                7.066654       0.013136
                                                         3.428369      -0.094392
                                                         1.430064       0.265435
                                                         0.571611       0.056465
                                                         0.232197      -0.192187
                                                         0.076562      -0.044987

                          1       2    3s                7.066654      -0.098564
                                                         3.428369       0.010390
                                                         1.430064       0.351249
                                                         0.571611       0.182615
                                                         0.232197      -0.425358
                                                         0.076562       0.190349

                          1       3    3px               7.066654       0.002364
                                                         3.428369       0.019222
                                                         1.430064       0.250132
                                                         0.571611      -0.058486
                                                         0.232197      -0.159451
                                                         0.076562      -0.020696
                          1       3    3py               7.066654       0.002364
                                                         3.428369       0.019222
                                                         1.430064       0.250132
                                                         0.571611      -0.058486
                                                         0.232197      -0.159451
                                                         0.076562      -0.020696
                          1       3    3pz               7.066654       0.002364
                                                         3.428369       0.019222
                                                         1.430064       0.250132
                                                         0.571611      -0.058486
                                                         0.232197      -0.159451
                                                         0.076562      -0.020696

                          1       4    4px               7.066654       0.492448
                                                         3.428369      -0.614736
                                                         1.430064      -0.191654
                                                         0.571611       0.037801
                                                         0.232197       0.302315
                                                         0.076562      -0.071336
                          1       4    4py               7.066654       0.492448
                                                         3.428369      -0.614736
                                                         1.430064      -0.191654
                                                         0.571611       0.037801
                                                         0.232197       0.302315
                                                         0.076562      -0.071336
                          1       4    4pz               7.066654       0.492448
                                                         3.428369      -0.614736
                                                         1.430064      -0.191654
                                                         0.571611       0.037801
                                                         0.232197       0.302315
                                                         0.076562      -0.071336

                          1       5    4dx2              7.066654     -15.264855
                                                         3.428369      -5.345726
                                                         1.430064      -1.022732
                                                         0.571611      -0.123148
                                                         0.232197      -0.006983
                                                         0.076562      -0.000022
                          1       5    4dxy              7.066654     -26.439504
                                                         3.428369      -9.259069
                                                         1.430064      -1.771423
                                                         0.571611      -0.213299
                                                         0.232197      -0.012094
                                                         0.076562      -0.000037
                          1       5    4dxz              7.066654     -26.439504
                                                         3.428369      -9.259069
                                                         1.430064      -1.771423
                                                         0.571611      -0.213299
                                                         0.232197      -0.012094
                                                         0.076562      -0.000037
                          1       5    4dy2              7.066654     -15.264855
                                                         3.428369      -5.345726
                                                         1.430064      -1.022732
                                                         0.571611      -0.123148
                                                         0.232197      -0.006983
                                                         0.076562      -0.000022
                          1       5    4dyz              7.066654     -26.439504
                                                         3.428369      -9.259069
                                                         1.430064      -1.771423
                                                         0.571611      -0.213299
                                                         0.232197      -0.012094
                                                         0.076562      -0.000037
                          1       5    4dz2              7.066654     -15.264855
                                                         3.428369      -5.345726
                                                         1.430064      -1.022732
                                                         0.571611      -0.123148
                                                         0.232197      -0.006983
                                                         0.076562      -0.000022

                          1       6    5dx2              7.066654      -5.739265
                                                         3.428369      -2.129289
                                                         1.430064      -0.700423
                                                         0.571611       0.161606
                                                         0.232197       0.043513
                                                         0.076562       0.011205
                          1       6    5dxy              7.066654      -9.940698
                                                         3.428369      -3.688037
                                                         1.430064      -1.213168
                                                         0.571611       0.279909
                                                         0.232197       0.075368
                                                         0.076562       0.019407
                          1       6    5dxz              7.066654      -9.940698
                                                         3.428369      -3.688037
                                                         1.430064      -1.213168
                                                         0.571611       0.279909
                                                         0.232197       0.075368
                                                         0.076562       0.019407
                          1       6    5dy2              7.066654      -5.739265
                                                         3.428369      -2.129289
                                                         1.430064      -0.700423
                                                         0.571611       0.161606
                                                         0.232197       0.043513
                                                         0.076562       0.011205
                          1       6    5dyz              7.066654      -9.940698
                                                         3.428369      -3.688037
                                                         1.430064      -1.213168
                                                         0.571611       0.279909
                                                         0.232197       0.075368
                                                         0.076562       0.019407
                          1       6    5dz2              7.066654      -5.739265
                                                         3.428369      -2.129289
                                                         1.430064      -0.700423
                                                         0.571611       0.161606
                                                         0.232197       0.043513
                                                         0.076562       0.011205

                          1       7    5fx3              7.066654       0.705879
                                                         3.428369      -0.273976
                                                         1.430064       0.113667
                                                         0.571611       0.132480
                                                         0.232197       0.012437
                                                         0.076562       0.003241
                          1       7    5fx2y             7.066654       1.578393
                                                         3.428369      -0.612629
                                                         1.430064       0.254167
                                                         0.571611       0.296234
                                                         0.232197       0.027811
                                                         0.076562       0.007246
                          1       7    5fx2z             7.066654       1.578393
                                                         3.428369      -0.612629
                                                         1.430064       0.254167
                                                         0.571611       0.296234
                                                         0.232197       0.027811
                                                         0.076562       0.007246
                          1       7    5fxy2             7.066654       1.578393
                                                         3.428369      -0.612629
                                                         1.430064       0.254167
                                                         0.571611       0.296234
                                                         0.232197       0.027811
                                                         0.076562       0.007246
                          1       7    5fxyz             7.066654       2.733856
                                                         3.428369      -1.061105
                                                         1.430064       0.440230
                                                         0.571611       0.513092
                                                         0.232197       0.048170
                                                         0.076562       0.012551
                          1       7    5fxz2             7.066654       1.578393
                                                         3.428369      -0.612629
                                                         1.430064       0.254167
                                                         0.571611       0.296234
                                                         0.232197       0.027811
                                                         0.076562       0.007246
                          1       7    5fy3              7.066654       0.705879
                                                         3.428369      -0.273976
                                                         1.430064       0.113667
                                                         0.571611       0.132480
                                                         0.232197       0.012437
                                                         0.076562       0.003241
                          1       7    5fy2z             7.066654       1.578393
                                                         3.428369      -0.612629
                                                         1.430064       0.254167
                                                         0.571611       0.296234
                                                         0.232197       0.027811
                                                         0.076562       0.007246
                          1       7    5fyz2             7.066654       1.578393
                                                         3.428369      -0.612629
                                                         1.430064       0.254167
                                                         0.571611       0.296234
                                                         0.232197       0.027811
                                                         0.076562       0.007246
                          1       7    5fz3              7.066654       0.705879
                                                         3.428369      -0.273976
                                                         1.430064       0.113667
                                                         0.571611       0.132480
                                                         0.232197       0.012437
                                                         0.076562       0.003241

     GTH Potential information for                                   GTH-PBE-q13

       Description:                       Goedecker-Teter-Hutter pseudopotential
                                           Goedecker et al., PRB 54, 1703 (1996)
                                          Hartwigsen et al., PRB 58, 3641 (1998)
                                                      Krack, TCA 114, 145 (2005)

       Gaussian exponent of the core charge distribution:               2.082466
       Electronic configuration (s p d ...):                           2   1  10

       Parameters of the local part of the GTH pseudopotential:

                          rloc        C1          C2          C3          C4
                        0.490000

       Parameters of the non-local part of the GTH pseudopotential:

                   l      r(l)      h(i,j,l)

                   0    0.416777   10.475690   -4.921768    0.870706
                                   -4.921768    7.770178   -2.248152
                                    0.870706   -2.248152    1.784415
                   1    0.569627    1.777985    0.195860
                                    0.195860   -0.231744
                   2    0.238126  -16.248680

  3. Atomic kind: O                                     Number of atoms:       2

     Orbital Basis Set                                     DZVP-MOLOPT-SR-GTH-q6

       Number of orbital shell sets:                                           1
       Number of orbital shells:                                               5
       Number of primitive Cartesian functions:                                5
       Number of Cartesian basis functions:                                   14
       Number of spherical basis functions:                                   13
       Norm type:                                                              2

       Normalised Cartesian orbitals:

                        Set   Shell   Orbital            Exponent    Coefficient

                          1       1    2s               10.389228       0.396646
                                                         3.849621       0.208811
                                                         1.388401      -0.301641
                                                         0.496955      -0.274061
                                                         0.162492      -0.033677

                          1       2    3s               10.389228       0.303673
                                                         3.849621       0.240943
                                                         1.388401      -0.313066
                                                         0.496955      -0.043055
                                                         0.162492       0.213991

                          1       3    3px              10.389228      -1.530415
                                                         3.849621      -1.371928
                                                         1.388401      -0.761951
                                                         0.496955      -0.253695
                                                         0.162492      -0.035541
                          1       3    3py              10.389228      -1.530415
                                                         3.849621      -1.371928
                                                         1.388401      -0.761951
                                                         0.496955      -0.253695
                                                         0.162492      -0.035541
                          1       3    3pz              10.389228      -1.530415
                                                         3.849621      -1.371928
                                                         1.388401      -0.761951
                                                         0.496955      -0.253695
                                                         0.162492      -0.035541

                          1       4    4px              10.389228      -0.565392
                                                         3.849621      -0.038231
                                                         1.388401      -0.382373
                                                         0.496955       0.179070
                                                         0.162492       0.122714
                          1       4    4py              10.389228      -0.565392
                                                         3.849621      -0.038231
                                                         1.388401      -0.382373
                                                         0.496955       0.179070
                                                         0.162492       0.122714
                          1       4    4pz              10.389228      -0.565392
                                                         3.849621      -0.038231
                                                         1.388401      -0.382373
                                                         0.496955       0.179070
                                                         0.162492       0.122714

                          1       5    4dx2             10.389228       1.867377
                                                         3.849621       0.670994
                                                         1.388401       1.353441
                                                         0.496955       0.273538
                                                         0.162492       0.006620
                          1       5    4dxy             10.389228       3.234392
                                                         3.849621       1.162195
                                                         1.388401       2.344229
                                                         0.496955       0.473781
                                                         0.162492       0.011466
                          1       5    4dxz             10.389228       3.234392
                                                         3.849621       1.162195
                                                         1.388401       2.344229
                                                         0.496955       0.473781
                                                         0.162492       0.011466
                          1       5    4dy2             10.389228       1.867377
                                                         3.849621       0.670994
                                                         1.388401       1.353441
                                                         0.496955       0.273538
                                                         0.162492       0.006620
                          1       5    4dyz             10.389228       3.234392
                                                         3.849621       1.162195
                                                         1.388401       2.344229
                                                         0.496955       0.473781
                                                         0.162492       0.011466
                          1       5    4dz2             10.389228       1.867377
                                                         3.849621       0.670994
                                                         1.388401       1.353441
                                                         0.496955       0.273538
                                                         0.162492       0.006620

     GTH Potential information for                                    GTH-PBE-q6

       Description:                       Goedecker-Teter-Hutter pseudopotential
                                           Goedecker et al., PRB 54, 1703 (1996)
                                          Hartwigsen et al., PRB 58, 3641 (1998)
                                                      Krack, TCA 114, 145 (2005)

       Gaussian exponent of the core charge distribution:               8.360253
       Electronic configuration (s p d ...):                               2   4

       Parameters of the local part of the GTH pseudopotential:

                          rloc        C1          C2          C3          C4
                        0.244554  -16.667215    2.487311

       Parameters of the non-local part of the GTH pseudopotential:

                   l      r(l)      h(i,j,l)

                   0    0.220956   18.337458
                   1    0.211332

  4. Atomic kind: H                                     Number of atoms:       8

     Orbital Basis Set                                     DZVP-MOLOPT-SR-GTH-q1

       Number of orbital shell sets:                                           1
       Number of orbital shells:                                               3
       Number of primitive Cartesian functions:                                5
       Number of Cartesian basis functions:                                    5
       Number of spherical basis functions:                                    5
       Norm type:                                                              2

       Normalised Cartesian orbitals:

                        Set   Shell   Orbital            Exponent    Coefficient

                          1       1    2s               10.068468      -0.133023
                                                         2.680223      -0.177618
                                                         0.791502      -0.258419
                                                         0.239116      -0.107525
                                                         0.082193      -0.014019

                          1       2    3s               10.068468       0.344673
                                                         2.680223       1.819821
                                                         0.791502      -0.999069
                                                         0.239116       0.017430
                                                         0.082193       0.082660

                          1       3    3px              10.068468       0.155326
                                                         2.680223       0.367157
                                                         0.791502       0.311480
                                                         0.239116       0.080105
                                                         0.082193       0.033440
                          1       3    3py              10.068468       0.155326
                                                         2.680223       0.367157
                                                         0.791502       0.311480
                                                         0.239116       0.080105
                                                         0.082193       0.033440
                          1       3    3pz              10.068468       0.155326
                                                         2.680223       0.367157
                                                         0.791502       0.311480
                                                         0.239116       0.080105
                                                         0.082193       0.033440

     GTH Potential information for                                    GTH-PBE-q1

       Description:                       Goedecker-Teter-Hutter pseudopotential
                                           Goedecker et al., PRB 54, 1703 (1996)
                                          Hartwigsen et al., PRB 58, 3641 (1998)
                                                      Krack, TCA 114, 145 (2005)

       Gaussian exponent of the core charge distribution:              12.500000
       Electronic configuration (s p d ...):                                   1

       Parameters of the local part of the GTH pseudopotential:

                          rloc        C1          C2          C3          C4
                        0.200000   -4.178900    0.724463

  5. Atomic kind: C                                     Number of atoms:       2

     Orbital Basis Set                                     DZVP-MOLOPT-SR-GTH-q4

       Number of orbital shell sets:                                           1
       Number of orbital shells:                                               5
       Number of primitive Cartesian functions:                                5
       Number of Cartesian basis functions:                                   14
       Number of spherical basis functions:                                   13
       Norm type:                                                              2

       Normalised Cartesian orbitals:

                        Set   Shell   Orbital            Exponent    Coefficient

                          1       1    2s                5.605331       0.322515
                                                         2.113016       0.213043
                                                         0.769911      -0.209686
                                                         0.348157      -0.219794
                                                         0.128212      -0.022789

                          1       2    3s                5.605331       0.552234
                                                         2.113016       0.082072
                                                         0.769911       0.007843
                                                         0.348157       0.136893
                                                         0.128212       0.074283

                          1       3    3px               5.605331      -0.703879
                                                         2.113016      -0.642521
                                                         0.769911      -0.374851
                                                         0.348157      -0.139743
                                                         0.128212      -0.027849
                          1       3    3py               5.605331      -0.703879
                                                         2.113016      -0.642521
                                                         0.769911      -0.374851
                                                         0.348157      -0.139743
                                                         0.128212      -0.027849
                          1       3    3pz               5.605331      -0.703879
                                                         2.113016      -0.642521
                                                         0.769911      -0.374851
                                                         0.348157      -0.139743
                                                         0.128212      -0.027849

                          1       4    4px               5.605331      -0.480376
                                                         2.113016      -0.552894
                                                         0.769911      -0.316145
                                                         0.348157       0.210505
                                                         0.128212       0.076095
                          1       4    4py               5.605331      -0.480376
                                                         2.113016      -0.552894
                                                         0.769911      -0.316145
                                                         0.348157       0.210505
                                                         0.128212       0.076095
                          1       4    4pz               5.605331      -0.480376
                                                         2.113016      -0.552894
                                                         0.769911      -0.316145
                                                         0.348157       0.210505
                                                         0.128212       0.076095

                          1       5    4dx2              5.605331       0.640026
                                                         2.113016       0.274300
                                                         0.769911       0.446711
                                                         0.348157       0.028674
                                                         0.128212       0.029790
                          1       5    4dxy              5.605331       1.108557
                                                         2.113016       0.475102
                                                         0.769911       0.773726
                                                         0.348157       0.049666
                                                         0.128212       0.051599
                          1       5    4dxz              5.605331       1.108557
                                                         2.113016       0.475102
                                                         0.769911       0.773726
                                                         0.348157       0.049666
                                                         0.128212       0.051599
                          1       5    4dy2              5.605331       0.640026
                                                         2.113016       0.274300
                                                         0.769911       0.446711
                                                         0.348157       0.028674
                                                         0.128212       0.029790
                          1       5    4dyz              5.605331       1.108557
                                                         2.113016       0.475102
                                                         0.769911       0.773726
                                                         0.348157       0.049666
                                                         0.128212       0.051599
                          1       5    4dz2              5.605331       0.640026
                                                         2.113016       0.274300
                                                         0.769911       0.446711
                                                         0.348157       0.028674
                                                         0.128212       0.029790

     GTH Potential information for                                    GTH-PBE-q4

       Description:                       Goedecker-Teter-Hutter pseudopotential
                                           Goedecker et al., PRB 54, 1703 (1996)
                                          Hartwigsen et al., PRB 58, 3641 (1998)
                                                      Krack, TCA 114, 145 (2005)

       Gaussian exponent of the core charge distribution:               4.364419
       Electronic configuration (s p d ...):                               2   2

       Parameters of the local part of the GTH pseudopotential:

                          rloc        C1          C2          C3          C4
                        0.338471   -8.803674    1.339211

       Parameters of the non-local part of the GTH pseudopotential:

                   l      r(l)      h(i,j,l)

                   0    0.302576    9.622487
                   1    0.291507


 MOLECULE KIND INFORMATION


 All atoms are their own molecule, skipping detailed information


 TOTAL NUMBERS AND MAXIMUM NUMBERS

  Total number of            - Atomic kinds:                                   5
                             - Atoms:                                        212
                             - Shell sets:                                   212
                             - Shells:                                      1244
                             - Primitive Cartesian functions:               1160
                             - Cartesian basis functions:                   4496
                             - Spherical basis functions:                   3892

  Maximum angular momentum of- Orbital basis functions:                        3
                             - Local part of the GTH pseudopotential:          2
                             - Non-local part of the GTH pseudopotential:      4


 MODULE QUICKSTEP:  ATOMIC COORDINATES IN angstrom

  Atom  Kind  Element       X           Y           Z          Z(eff)       Mass

       1     1 N    7    0.002018    2.053349    2.503221      5.00      14.0067
       2     2 Ga  31   -0.002032    0.092579    2.854523     13.00      69.7230
       3     1 N    7   -0.005250    0.059229    5.008349      5.00      14.0067
       4     2 Ga  31   -0.003378    1.890816    5.798277     13.00      69.7230
       5     1 N    7   -0.005795    1.899963    7.793962      5.00      14.0067
       6     2 Ga  31   -0.004298    0.055657    8.440394     13.00      69.7230
       7     1 N    7   -0.004665    0.055099   10.412604      5.00      14.0067
       8     2 Ga  31   -0.004745    1.893940   11.071881     13.00      69.7230
       9     1 N    7   -0.005780    1.875456   13.062171      5.00      14.0067
      10     2 Ga  31   -0.004484    0.055874   13.873098     13.00      69.7230
      11     1 N    7   -0.004054    0.055915   16.066668      5.00      14.0067
      12     2 Ga  31   -0.005922    2.097022   16.482843     13.00      69.7230
      13     2 Ga  31    0.031506    3.735173    1.368631     13.00      69.7230
      14     1 N    7   -1.472069    4.634557    2.472709      5.00      14.0067
      15     2 Ga  31   -1.679925    2.795750    3.263781     13.00      69.7230
      16     1 N    7   -1.613968    2.843826    5.241037      5.00      14.0067
      17     2 Ga  31   -1.640023    4.706102    5.810662     13.00      69.7230
      18     1 N    7   -1.623848    4.704758    7.799026      5.00      14.0067
      19     2 Ga  31   -1.601939    2.844866    8.439943     13.00      69.7230
      20     1 N    7   -1.601570    2.847880   10.429049      5.00      14.0067
      21     2 Ga  31   -1.630447    4.706199   11.075071     13.00      69.7230
      22     1 N    7   -1.646537    4.716523   13.063737      5.00      14.0067
      23     2 Ga  31   -1.602906    2.847340   13.621808     13.00      69.7230
      24     1 N    7   -1.628129    2.834110   15.581157      5.00      14.0067
      25     2 Ga  31   -1.451382    4.604779   16.482621     13.00      69.7230
      26     1 N    7   -0.000246    3.766889   17.625373      5.00      14.0067
      27     1 N    7   -3.211516    7.602309    2.504495      5.00      14.0067
      28     2 Ga  31   -3.195663    5.603392    2.851644     13.00      69.7230
      29     1 N    7   -3.215439    5.623670    5.006765      5.00      14.0067
      30     2 Ga  31   -3.227592    7.446772    5.798731     13.00      69.7230
      31     1 N    7   -3.219264    7.472560    7.786823      5.00      14.0067
      32     2 Ga  31   -3.222668    5.625696    8.446396     13.00      69.7230
      33     1 N    7   -3.221697    5.627391   10.415767      5.00      14.0067
      34     2 Ga  31   -3.223170    7.466152   11.072671     13.00      69.7230
      35     1 N    7   -3.222106    7.446549   13.061906      5.00      14.0067
      36     2 Ga  31   -3.221726    5.626670   13.877274     13.00      69.7230
      37     1 N    7   -3.222006    5.626951   16.065578      5.00      14.0067
      38     2 Ga  31   -3.222223    7.674502   16.485349     13.00      69.7230
      39     2 Ga  31   -3.248257    9.360175    1.436825     13.00      69.7230
      40     1 N    7   -4.725641   10.210948    2.514529      5.00      14.0067
      41     2 Ga  31   -4.934016    8.351905    3.265825     13.00      69.7230
      42     1 N    7   -4.829681    8.408341    5.230023      5.00      14.0067
      43     2 Ga  31   -4.854467   10.284314    5.787808     13.00      69.7230
      44     1 N    7   -4.837429   10.273568    7.782736      5.00      14.0067
      45     2 Ga  31   -4.822135    8.417523    8.430510     13.00      69.7230
      46     1 N    7   -4.817404    8.418175   10.421149      5.00      14.0067
      47     2 Ga  31   -4.844259   10.276551   11.068805     13.00      69.7230
      48     1 N    7   -4.861468   10.287023   13.059154      5.00      14.0067
      49     2 Ga  31   -4.819172    8.418830   13.622968     13.00      69.7230
      50     1 N    7   -4.849576    8.403693   15.579502      5.00      14.0067
      51     2 Ga  31   -4.659548   10.171231   16.486709     13.00      69.7230
      52     1 N    7   -3.216545    9.338135   17.613527      5.00      14.0067
      53     1 N    7    3.196148    1.928988    2.592332      5.00      14.0067
      54     2 Ga  31    3.207166    0.183214    3.271865     13.00      69.7230
      55     1 N    7    3.214867    0.059335    5.235481      5.00      14.0067
      56     2 Ga  31    3.210508    1.922344    5.871371     13.00      69.7230
      57     1 N    7    3.214003    1.913301    7.844305      5.00      14.0067
      58     2 Ga  31    3.209557    0.046986    8.435218     13.00      69.7230
      59     1 N    7    3.211299    0.041861   10.424675      5.00      14.0067
      60     2 Ga  31    3.211166    1.910757   11.029230     13.00      69.7230
      61     1 N    7    3.210014    1.912281   12.995349      5.00      14.0067
      62     2 Ga  31    3.210134    0.043993   13.622258     13.00      69.7230
      63     1 N    7    3.208229    0.078115   15.578951      5.00      14.0067
      64     2 Ga  31    3.208722    1.914488   15.862997     13.00      69.7230
      65     1 N    7    1.471987    4.637643    2.513612      5.00      14.0067
      66     2 Ga  31    1.686095    2.811934    3.294585     13.00      69.7230
      67     1 N    7    1.604091    2.845819    5.257178      5.00      14.0067
      68     2 Ga  31    1.654312    4.720293    5.824372     13.00      69.7230
      69     1 N    7    1.601884    4.699658    7.823710      5.00      14.0067
      70     2 Ga  31    1.592443    2.843976    8.443927     13.00      69.7230
      71     1 N    7    1.592321    2.844307   10.433716      5.00      14.0067
      72     2 Ga  31    1.620026    4.705924   11.071183     13.00      69.7230
      73     1 N    7    1.634914    4.716585   13.062733      5.00      14.0067
      74     2 Ga  31    1.591461    2.847698   13.621712     13.00      69.7230
      75     1 N    7    1.615775    2.833848   15.582316      5.00      14.0067
      76     2 Ga  31    1.443839    4.607272   16.483036     13.00      69.7230
      77     1 N    7   -0.004166    7.471173    2.689329      5.00      14.0067
      78     2 Ga  31    0.009693    5.618806    3.340313     13.00      69.7230
      79     1 N    7   -0.006355    5.639349    5.265723      5.00      14.0067
      80     2 Ga  31    0.002221    7.478179    5.906908     13.00      69.7230
      81     1 N    7   -0.003033    7.485591    7.860815      5.00      14.0067
      82     2 Ga  31   -0.006312    5.611269    8.454971     13.00      69.7230
      83     1 N    7   -0.007982    5.615359   10.439865      5.00      14.0067
      84     2 Ga  31   -0.006372    7.483996   11.034821     13.00      69.7230
      85     1 N    7   -0.005516    7.484079   13.000667      5.00      14.0067
      86     2 Ga  31   -0.005485    5.612784   13.622500     13.00      69.7230
      87     1 N    7   -0.006422    5.643349   15.582028      5.00      14.0067
      88     2 Ga  31   -0.004128    7.483165   15.859968     13.00      69.7230
      89     1 N    7   -1.711165   10.205015    2.510853      5.00      14.0067
      90     2 Ga  31   -1.595268    8.400523    3.324862     13.00      69.7230
      91     1 N    7   -1.598226    8.405518    5.249620      5.00      14.0067
      92     2 Ga  31   -1.588767   10.292154    5.805065     13.00      69.7230
      93     1 N    7   -1.603161   10.272491    7.790909      5.00      14.0067
      94     2 Ga  31   -1.625121    8.418720    8.445657     13.00      69.7230
      95     1 N    7   -1.625103    8.418617   10.430775      5.00      14.0067
      96     2 Ga  31   -1.598275   10.278809   11.072813     13.00      69.7230
      97     1 N    7   -1.581015   10.288110   13.061949      5.00      14.0067
      98     2 Ga  31   -1.625759    8.419333   13.623711     13.00      69.7230
      99     1 N    7   -1.594286    8.401292   15.581117      5.00      14.0067
     100     2 Ga  31   -1.778728   10.174771   16.485089     13.00      69.7230
     101     1 N    7    6.428224    2.036705    2.532968      5.00      14.0067
     102     2 Ga  31    6.430253    0.063693    2.883969     13.00      69.7230
     103     1 N    7    6.429934    0.055844    5.017814      5.00      14.0067
     104     2 Ga  31    6.421944    1.894511    5.797377     13.00      69.7230
     105     1 N    7    6.426638    1.900568    7.789980      5.00      14.0067
     106     2 Ga  31    6.428113    0.057685    8.445102     13.00      69.7230
     107     1 N    7    6.427607    0.055891   10.414612      5.00      14.0067
     108     2 Ga  31    6.428613    1.895320   11.073432     13.00      69.7230
     109     1 N    7    6.427723    1.875422   13.062661      5.00      14.0067
     110     2 Ga  31    6.427055    0.056786   13.877584     13.00      69.7230
     111     1 N    7    6.426933    0.057197   16.065597      5.00      14.0067
     112     2 Ga  31    6.426374    2.104926   16.484358     13.00      69.7230
     113     2 Ga  31    6.468668    3.741175    1.488691     13.00      69.7230
     114     1 N    7    4.925204    4.636797    2.413707      5.00      14.0067
     115     2 Ga  31    4.699378    2.812827    3.273027     13.00      69.7230
     116     1 N    7    4.819104    2.849659    5.232602      5.00      14.0067
     117     2 Ga  31    4.776447    4.724190    5.816168     13.00      69.7230
     118     1 N    7    4.821778    4.697292    7.817893      5.00      14.0067
     119     2 Ga  31    4.830909    2.845449    8.447519     13.00      69.7230
     120     1 N    7    4.831083    2.844585   10.435122      5.00      14.0067
     121     2 Ga  31    4.804568    4.707418   11.069908     13.00      69.7230
     122     1 N    7    4.787450    4.716950   13.061138      5.00      14.0067
     123     2 Ga  31    4.829219    2.847736   13.620768     13.00      69.7230
     124     1 N    7    4.798436    2.832287   15.577644      5.00      14.0067
     125     2 Ga  31    4.989535    4.600090   16.485739     13.00      69.7230
     126     1 N    7    6.432062    3.767310   17.613713      5.00      14.0067
     127     1 N    7    3.205783    7.600586    2.410779      5.00      14.0067
     128     1 N    7    3.213146    5.629866    5.147418      5.00      14.0067
     129     2 Ga  31    3.220212    7.426635    5.826744     13.00      69.7230
     130     1 N    7    3.210511    7.487522    7.820980      5.00      14.0067
     131     2 Ga  31    3.212800    5.625851    8.442092     13.00      69.7230
     132     1 N    7    3.211808    5.627359   10.419086      5.00      14.0067
     133     2 Ga  31    3.213496    7.465111   11.072455     13.00      69.7230
     134     1 N    7    3.211486    7.447242   13.063158      5.00      14.0067
     135     2 Ga  31    3.211862    5.626258   13.872535     13.00      69.7230
     136     1 N    7    3.212544    5.626220   16.066910      5.00      14.0067
     137     2 Ga  31    3.210565    7.667679   16.483295     13.00      69.7230
     138     2 Ga  31    3.238095    9.390287    1.441814     13.00      69.7230
     139     1 N    7    1.708870   10.194525    2.516644      5.00      14.0067
     140     2 Ga  31    1.604839    8.368108    3.314143     13.00      69.7230
     141     1 N    7    1.599274    8.401218    5.239067      5.00      14.0067
     142     2 Ga  31    1.580889   10.283066    5.804363     13.00      69.7230
     143     1 N    7    1.592571   10.271856    7.791301      5.00      14.0067
     144     2 Ga  31    1.616021    8.421761    8.457921     13.00      69.7230
     145     1 N    7    1.612273    8.420565   10.440625      5.00      14.0067
     146     2 Ga  31    1.588176   10.280174   11.075564     13.00      69.7230
     147     1 N    7    1.570826   10.288737   13.063692      5.00      14.0067
     148     2 Ga  31    1.614887    8.419501   13.622850     13.00      69.7230
     149     1 N    7    1.588002    8.405222   15.582227      5.00      14.0067
     150     2 Ga  31    1.765367   10.175869   16.483110     13.00      69.7230
     151     1 N    7    3.216411    9.338109   17.625732      5.00      14.0067
     152     1 N    7    9.654235    1.916785    2.607548      5.00      14.0067
     153     2 Ga  31    9.652858    0.176612    3.289143     13.00      69.7230
     154     1 N    7    9.642801    0.055121    5.246511      5.00      14.0067
     155     2 Ga  31    9.652387    1.915815    5.875228     13.00      69.7230
     156     1 N    7    9.644093    1.912021    7.845259      5.00      14.0067
     157     2 Ga  31    9.646285    0.043870    8.434875     13.00      69.7230
     158     1 N    7    9.643691    0.041923   10.424998      5.00      14.0067
     159     2 Ga  31    9.643511    1.912295   11.024651     13.00      69.7230
     160     1 N    7    9.643577    1.912355   12.992863      5.00      14.0067
     161     2 Ga  31    9.643285    0.044328   13.622729     13.00      69.7230
     162     1 N    7    9.642542    0.073412   15.581673      5.00      14.0067
     163     2 Ga  31    9.644457    1.912740   15.861785     13.00      69.7230
     164     1 N    7    7.931071    4.633746    2.523710      5.00      14.0067
     165     2 Ga  31    8.148708    2.781835    3.299803     13.00      69.7230
     166     1 N    7    8.039643    2.839399    5.253072      5.00      14.0067
     167     2 Ga  31    8.054116    4.715633    5.791078     13.00      69.7230
     168     1 N    7    8.046104    4.706416    7.786129      5.00      14.0067
     169     2 Ga  31    8.025432    2.848037    8.433642     13.00      69.7230
     170     1 N    7    8.024397    2.848127   10.425022      5.00      14.0067
     171     2 Ga  31    8.051006    4.706401   11.073452     13.00      69.7230
     172     1 N    7    8.067773    4.716674   13.062686      5.00      14.0067
     173     2 Ga  31    8.024739    2.847443   13.622233     13.00      69.7230
     174     1 N    7    8.055315    2.830175   15.579377      5.00      14.0067
     175     2 Ga  31    7.868943    4.603465   16.484539     13.00      69.7230
     176     1 N    7    6.422254    7.478325    2.574079      5.00      14.0067
     177     2 Ga  31    6.398615    5.737726    3.266068     13.00      69.7230
     178     1 N    7    6.421420    5.622574    5.226304      5.00      14.0067
     179     2 Ga  31    6.419639    7.478730    5.859832     13.00      69.7230
     180     1 N    7    6.425757    7.482580    7.833688      5.00      14.0067
     181     2 Ga  31    6.429981    5.615482    8.443633     13.00      69.7230
     182     1 N    7    6.430835    5.615820   10.432165      5.00      14.0067
     183     2 Ga  31    6.429886    7.484288   11.029007     13.00      69.7230
     184     1 N    7    6.427450    7.484907   12.994833      5.00      14.0067
     185     2 Ga  31    6.426848    5.615039   13.621245     13.00      69.7230
     186     1 N    7    6.424995    5.649618   15.577911      5.00      14.0067
     187     2 Ga  31    6.424876    7.485074   15.863902     13.00      69.7230
     188     1 N    7    4.716166   10.207288    2.517358      5.00      14.0067
     189     2 Ga  31    4.905493    8.332747    3.262310     13.00      69.7230
     190     1 N    7    4.809711    8.408610    5.224121      5.00      14.0067
     191     2 Ga  31    4.847621   10.277241    5.790877     13.00      69.7230
     192     1 N    7    4.830991   10.272794    7.785589      5.00      14.0067
     193     2 Ga  31    4.812973    8.420511    8.445085     13.00      69.7230
     194     1 N    7    4.811799    8.419832   10.432642      5.00      14.0067
     195     2 Ga  31    4.835489   10.278182   11.072210     13.00      69.7230
     196     1 N    7    4.850879   10.288031   13.061999      5.00      14.0067
     197     2 Ga  31    4.808274    8.418907   13.622327     13.00      69.7230
     198     1 N    7    4.832567    8.405173   15.582572      5.00      14.0067
     199     2 Ga  31    4.659666   10.178063   16.483374     13.00      69.7230
     200     3 O    8    0.712238    3.856283   -0.373355      6.00      15.9994
     201     4 H    1   -0.010551    7.457072    1.663493      1.00       1.0079
     202     5 C    6    1.141662    2.595013   -0.936691      4.00      12.0107
     203     4 H    1    1.846248    2.067910   -0.271424      1.00       1.0079
     204     4 H    1    0.283746    1.935914   -1.134427      1.00       1.0079
     205     4 H    1    1.641965    2.806977   -1.892183      1.00       1.0079
     206     2 Ga  31    3.170301    5.590462    2.260414     13.00      69.7230
     207     3 O    8    2.824477    5.463063    0.133328      6.00      15.9994
     208     4 H    1    2.049529    4.829912   -0.065153      1.00       1.0079
     209     5 C    6    3.891526    5.254810   -0.812515      4.00      12.0107
     210     4 H    1    3.527242    5.431581   -1.833107      1.00       1.0079
     211     4 H    1    4.685715    5.973594   -0.577151      1.00       1.0079
     212     4 H    1    4.294608    4.233007   -0.737026      1.00       1.0079




 SCF PARAMETERS         Density guess:                                    ATOMIC
                        --------------------------------------------------------
                        max_scf:                                              80
                        max_scf_history:                                       0
                        max_diis:                                              4
                        --------------------------------------------------------
                        eps_scf:                                        5.00E-06
                        eps_scf_history:                                0.00E+00
                        eps_diis:                                       1.00E-01
                        eps_eigval:                                     1.00E-05
                        --------------------------------------------------------
                        level_shift [a.u.]:                                 0.00
                        --------------------------------------------------------
                        Outer loop SCF in use 
                        No variables optimised in outer loop
                        eps_scf                                         5.00E-06
                        max_scf                                                4
                        No outer loop optimization
                        step_size                                       5.00E-01

 PW_GRID| Information for grid number                                          1
 PW_GRID| Grid distributed over                                    80 processors
 PW_GRID| Real space group dimensions                                    80    1
 PW_GRID| the grid is blocked:                                                NO
 PW_GRID| Cutoff [a.u.]                                                    600.0
 PW_GRID| spherical cutoff:                                                   NO
 PW_GRID|   Bounds   1           -144     143                Points:         288
 PW_GRID|   Bounds   2           -144     143                Points:         288
 PW_GRID|   Bounds   3           -337     337                Points:         675
 PW_GRID| Volume element (a.u.^3)  0.5630E-03     Volume (a.u.^3)     31519.8467
 PW_GRID| Grid span                                                    FULLSPACE
 PW_GRID|   Distribution                         Average         Max         Min
 PW_GRID|   G-Vectors                           699840.0      699840      699840
 PW_GRID|   G-Rays                                2430.0        2430        2430
 PW_GRID|   Real Space Points                   699840.0      777600      583200

 PW_GRID| Information for grid number                                          2
 PW_GRID| Grid distributed over                                    80 processors
 PW_GRID| Real space group dimensions                                    80    1
 PW_GRID| the grid is blocked:                                                NO
 PW_GRID| Cutoff [a.u.]                                                    200.0
 PW_GRID| spherical cutoff:                                                   NO
 PW_GRID|   Bounds   1            -80      79                Points:         160
 PW_GRID|   Bounds   2            -80      79                Points:         160
 PW_GRID|   Bounds   3           -200     199                Points:         400
 PW_GRID| Volume element (a.u.^3)  0.3078E-02     Volume (a.u.^3)     31519.8467
 PW_GRID| Grid span                                                    FULLSPACE
 PW_GRID|   Distribution                         Average         Max         Min
 PW_GRID|   G-Vectors                           128000.0      128160      127840
 PW_GRID|   G-Rays                                 800.0         801         799
 PW_GRID|   Real Space Points                   128000.0      128000      128000

 PW_GRID| Information for grid number                                          3
 PW_GRID| Grid distributed over                                    80 processors
 PW_GRID| Real space group dimensions                                    80    1
 PW_GRID| the grid is blocked:                                                NO
 PW_GRID| Cutoff [a.u.]                                                     66.7
 PW_GRID| spherical cutoff:                                                   NO
 PW_GRID|   Bounds   1            -48      47                Points:          96
 PW_GRID|   Bounds   2            -48      47                Points:          96
 PW_GRID|   Bounds   3           -112     112                Points:         225
 PW_GRID| Volume element (a.u.^3)  0.1520E-01     Volume (a.u.^3)     31519.8467
 PW_GRID| Grid span                                                    FULLSPACE
 PW_GRID|   Distribution                         Average         Max         Min
[...]
 flops    13 x    25 x    50         518172980000     100.0%      0.0%      0.0%
 flops    25 x    13 x    50         519273755000     100.0%      0.0%      0.0%
 flops   991 x    50 x    64         528093593600     100.0%      0.0%      0.0%
 flops   991 x    64 x    50         528093593600     100.0%      0.0%      0.0%
 flops   242 x    32 x    32         589620477952     100.0%      0.0%      0.0%
 flops   242 x    64 x   178         671527960576     100.0%      0.0%      0.0%
 flops    25 x    18 x    13         690094887300     100.0%      0.0%      0.0%
 flops    13 x    18 x    25         690094887300     100.0%      0.0%      0.0%
 flops   242 x    64 x   183         690391105536     100.0%      0.0%      0.0%
 flops   973 x    32 x    50         712939673600     100.0%      0.0%      0.0%
 flops   973 x    50 x    32         712939673600     100.0%      0.0%      0.0%
 flops   242 x    64 x   195         735662653440     100.0%      0.0%      0.0%
 flops   955 x    32 x   178         788884152320     100.0%      0.0%      0.0%
 flops   955 x    32 x   183         811043819520     100.0%      0.0%      0.0%
 flops   991 x    32 x   178         818622193664     100.0%      0.0%      0.0%
 flops   991 x    32 x   183         841617199104     100.0%      0.0%      0.0%
 flops   242 x    64 x    32         857629786112     100.0%      0.0%      0.0%
 flops   242 x    32 x    64         857629786112     100.0%      0.0%      0.0%
 flops   955 x    32 x   195         864227020800     100.0%      0.0%      0.0%
 flops   991 x    32 x   195         896805212160     100.0%      0.0%      0.0%
 flops     5 x    32 x    25         971023200000     100.0%      0.0%      0.0%
 flops    25 x    32 x     5         971023200000     100.0%      0.0%      0.0%
 flops    25 x    25 x    50         996743750000     100.0%      0.0%      0.0%
 flops   973 x    64 x    50        1037003161600     100.0%      0.0%      0.0%
 flops   973 x    50 x    64        1037003161600     100.0%      0.0%      0.0%
 flops   955 x    64 x   178        1147467857920     100.0%      0.0%      0.0%
 flops   955 x    64 x   183        1179700101120     100.0%      0.0%      0.0%
 flops   991 x    64 x   178        1190723190784     100.0%      0.0%      0.0%
 flops   991 x    64 x   183        1224170471424     100.0%      0.0%      0.0%
 flops   242 x    64 x    64        1247461507072     100.0%      0.0%      0.0%
 flops   955 x    64 x   195        1257057484800     100.0%      0.0%      0.0%
 flops   224 x    32 x   178        1282007924736     100.0%      0.0%      0.0%
 flops   991 x    64 x   195        1304443944960     100.0%      0.0%      0.0%
 flops    25 x    18 x    25        1312875000000     100.0%      0.0%      0.0%
 flops   224 x    32 x   183        1318019383296     100.0%      0.0%      0.0%
 flops   224 x    32 x   195        1404446883840     100.0%      0.0%      0.0%
 flops   973 x    32 x   178        1607506345984     100.0%      0.0%      0.0%
 flops   224 x    32 x    32        1637293228032     100.0%      0.0%      0.0%
 flops   973 x    32 x   183        1652661018624     100.0%      0.0%      0.0%
 flops   973 x    32 x   195        1761032232960     100.0%      0.0%      0.0%
 flops    13 x    13 x    32        1846028998528     100.0%      0.0%      0.0%
 flops   224 x    64 x   178        1864738799616     100.0%      0.0%      0.0%
 flops   224 x    64 x   183        1917119102976     100.0%      0.0%      0.0%
 flops   224 x    64 x   195        2042831831040     100.0%      0.0%      0.0%
 flops   973 x    64 x   178        2338191048704     100.0%      0.0%      0.0%
 flops   224 x    32 x    64        2381517422592     100.0%      0.0%      0.0%
 flops   224 x    64 x    32        2381517422592     100.0%      0.0%      0.0%
 flops   973 x    64 x   183        2403870572544     100.0%      0.0%      0.0%
 flops   955 x    32 x    32        2463122309120     100.0%      0.0%      0.0%
 flops   991 x    32 x    32        2555972993024     100.0%      0.0%      0.0%
 flops   973 x    64 x   195        2561501429760     100.0%      0.0%      0.0%
 flops    13 x    13 x    64        2685133088768     100.0%      0.0%      0.0%
 flops   224 x    64 x    64        3464025341952     100.0%      0.0%      0.0%
 flops   955 x    32 x    64        3582723358720     100.0%      0.0%      0.0%
 flops   955 x    64 x    32        3582723358720     100.0%      0.0%      0.0%
 flops    13 x    25 x    32        3647937779200     100.0%      0.0%      0.0%
 flops    25 x    13 x    32        3655687235200     100.0%      0.0%      0.0%
 flops   991 x    32 x    64        3717778898944     100.0%      0.0%      0.0%
 flops   991 x    64 x    32        3717778898944     100.0%      0.0%      0.0%
 flops   973 x    32 x    32        5019095302144     100.0%      0.0%      0.0%
 flops   955 x    64 x    64        5211233976320     100.0%      0.0%      0.0%
 flops    13 x    25 x    64        5306091315200     100.0%      0.0%      0.0%
 flops    25 x    13 x    64        5317363251200     100.0%      0.0%      0.0%
 flops   991 x    64 x    64        5407678398464     100.0%      0.0%      0.0%
 flops    25 x    25 x    32        7017076000000     100.0%      0.0%      0.0%
 flops   973 x    64 x    32        7300502257664     100.0%      0.0%      0.0%
 flops   973 x    32 x    64        7300502257664     100.0%      0.0%      0.0%
 flops    25 x    25 x    64       10206656000000     100.0%      0.0%      0.0%
 flops   973 x    64 x    64       10618912374784     100.0%      0.0%      0.0%
 flops    13 x    32 x    13       17181004958208     100.0%      0.0%      0.0%
 flops    25 x    32 x    13       34351389945600     100.0%      0.0%      0.0%
 flops    13 x    32 x    25       34351389945600     100.0%      0.0%      0.0%
 flops    25 x    32 x    25       65352000000000     100.0%      0.0%      0.0%
 flops inhomo. stacks             121017161675200     100.0%      0.0%      0.0%
 flops total                       443.768720E+12     100.0%      0.0%      0.0%
 flops max/rank                      7.698631E+12     100.0%      0.0%      0.0%
 matmuls inhomo. stacks                  12216960     100.0%      0.0%      0.0%
 matmuls total                         8620061808     100.0%      0.0%      0.0%
 number of processed stacks             156197776     100.0%      0.0%      0.0%
 average stack size                                    55.2       0.0       0.0
 marketing flops                   474.039768E+12
 -------------------------------------------------------------------------------
 # multiplications                          40397
 max memory usage/rank               1.498579E+09
 # max total images/rank                        5
 # max 3D layers                                1
 # MPI messages exchanged               368420640
 MPI messages size (bytes):
  total size                        46.785918E+12
  min size                           0.000000E+00
  max size                           1.894792E+06
  average size                     126.990492E+03
 MPI breakdown and total messages size (bytes):
             size <=      128             2091520                        0
       128 < size <=     8192            46558512             381407330304
      8192 < size <=    32768           107314128            2189235901952
     32768 < size <=   131072           166192240           12009094697920
    131072 < size <=  4194304            46264240           32169950924352
   4194304 < size <= 16777216                   0                        0
  16777216 < size                               0                        0
 -------------------------------------------------------------------------------

 *** WARNING in dbcsr/mm/dbcsr_mm.F:268 :: Using a non-square number of ***
 *** MPI ranks might lead to poor performance.                          ***
 *** Used ranks: 80                                                     ***
 *** Suggested: 81 169                                                  ***

 -------------------------------------------------------------------------------
 
 MEMORY| Estimated peak process memory [MiB]                                1456

 -------------------------------------------------------------------------------
 ----                             MULTIGRID INFO                            ----
 -------------------------------------------------------------------------------
 count for grid        1:        1186370          cutoff [a.u.]          600.00
 count for grid        2:        7588616          cutoff [a.u.]          200.00
 count for grid        3:        6764327          cutoff [a.u.]           66.67
 count for grid        4:        9727573          cutoff [a.u.]           22.22
 count for grid        5:        8716658          cutoff [a.u.]            7.41
 total gridlevel count  :       33983544

 -------------------------------------------------------------------------------
 -                                                                             -
 -                         MESSAGE PASSING PERFORMANCE                         -
 -                                                                             -
 -------------------------------------------------------------------------------

 ROUTINE             CALLS      AVE VOLUME [Bytes]
 MP_Group             2819
 MP_Bcast            27323                  15438.
 MP_Allreduce       284987                    192.
 MP_Sync              1111
 MP_Alltoall        211004                6131634.
 MP_SendRecv         18328                   5930.
 MP_ISendRecv      1108686                 133520.
 MP_Wait           9116008
 MP_comm_split        1106
 MP_ISend         10391688                 120597.
 MP_IRecv         10394984                 120497.
 MP_Recv              1083                 162816.
 MP_Memory         4512340
 -------------------------------------------------------------------------------


 -------------------------------------------------------------------------------
 -                                                                             -
 -                           R E F E R E N C E S                               -
 -                                                                             -
 -------------------------------------------------------------------------------
 
 CP2K version 7.0 (Development Version), the CP2K developers group (2018).
 CP2K is freely available from https://www.cp2k.org/ .

 Schuett, Ole; Messmer, Peter; Hutter, Juerg; VandeVondele, Joost. 
 Electronic Structure Calculations on Graphics Processing Units, John Wiley & Sons, Ltd, 173-190 (2016). 
 GPU-Accelerated Sparse Matrix-Matrix Multiplication for Linear Scaling Density Functional Theory.
 http://dx.doi.org/10.1002/9781118670712.ch8


 Borstnik, U; VandeVondele, J; Weber, V; Hutter, J. 
 PARALLEL COMPUTING, 40 (5-6), 47-58 (2014). 
 Sparse matrix multiplication: The distributed block-compressed sparse
 row library.
 http://dx.doi.org/10.1016/j.parco.2014.03.012


 Hutter, J; Iannuzzi, M; Schiffmann, F; VandeVondele, J. 
 WILEY INTERDISCIPLINARY REVIEWS-COMPUTATIONAL MOLECULAR SCIENCE, 4 (1), 15-25 (2014). 
 CP2K: atomistic simulations of condensed matter systems.
 http://dx.doi.org/10.1002/wcms.1159


 Grimme, S; Ehrlich, S; Goerigk, L. 
 JOURNAL OF COMPUTATIONAL CHEMISTRY, 32, 1456 (2011). 
 Effect of the damping function in dispersion corrected density functional theory.
 http://dx.doi.org/10.1002/jcc.21759


 Grimme, S; Antony, J; Ehrlich, S; Krieg, H. 
 JOURNAL OF CHEMICAL PHYSICS, 132 (15), 154104 (2010). 
 A consistent and accurate ab initio parametrization of density
 functional dispersion correction (DFT-D) for the 94 elements H-Pu.
 http://dx.doi.org/10.1063/1.3382344


 VandeVondele, J; Hutter, J. 
 JOURNAL OF CHEMICAL PHYSICS, 127 (11), 114105 (2007). 
 Gaussian basis sets for accurate calculations on molecular systems in
 gas and condensed phases.
 http://dx.doi.org/10.1063/1.2770708


 Krack, M. 
 THEORETICAL CHEMISTRY ACCOUNTS, 114 (1-3), 145-152 (2005). 
 Pseudopotentials for H to Kr optimized for gradient-corrected
 exchange-correlation functionals.
 http://dx.doi.org/10.1007/s00214-005-0655-y


 VandeVondele, J; Krack, M; Mohamed, F; Parrinello, M; Chassaing, T;
 Hutter, J. COMPUTER PHYSICS COMMUNICATIONS, 167 (2), 103-128 (2005). 
 QUICKSTEP: Fast and accurate density functional calculations using a
 mixed Gaussian and plane waves approach.
 http://dx.doi.org/10.1016/j.cpc.2004.12.014


 Frigo, M; Johnson, SG. 
 PROCEEDINGS OF THE IEEE, 93 (2), 216-231 (2005). 
 The design and implementation of FFTW3.
 http://dx.doi.org/10.1109/JPROC.2004.840301


 Kolafa, J. 
 JOURNAL OF COMPUTATIONAL CHEMISTRY, 25 (3), 335-342 (2004). 
 Time-reversible always stable predictor-corrector method for molecular dynamics of polarizable molecules.
 http://dx.doi.org/10.1002/jcc.10385


 VandeVondele, J; Hutter, J. 
 JOURNAL OF CHEMICAL PHYSICS, 118 (10), 4365-4369 (2003). 
 An efficient orbital transformation method for electronic structure
 calculations.
 http://dx.doi.org/10.1063/1.1543154


 Hartwigsen, C; Goedecker, S; Hutter, J. 
 PHYSICAL REVIEW B, 58 (7), 3641-3662 (1998). 
 Relativistic separable dual-space Gaussian pseudopotentials from H to Rn.
 http://dx.doi.org/10.1103/PhysRevB.58.3641


 Lippert, G; Hutter, J; Parrinello, M. 
 MOLECULAR PHYSICS, 92 (3), 477-487 (1997). 
 A hybrid Gaussian and plane wave density functional scheme.
 http://dx.doi.org/10.1080/002689797170220


 Perdew, JP; Burke, K; Ernzerhof, M. 
 PHYSICAL REVIEW LETTERS, 77 (18), 3865-3868 (1996). 
 Generalized gradient approximation made simple.
 http://dx.doi.org/10.1103/PhysRevLett.77.3865


 Goedecker, S; Teter, M; Hutter, J. 
 PHYSICAL REVIEW B, 54 (3), 1703-1710 (1996). 
 Separable dual-space Gaussian pseudopotentials.
 http://dx.doi.org/10.1103/PhysRevB.54.1703


 -------------------------------------------------------------------------------
 -                                                                             -
 -                                T I M I N G                                  -
 -                                                                             -
 -------------------------------------------------------------------------------
 SUBROUTINE                       CALLS  ASD         SELF TIME        TOTAL TIME
                                MAXIMUM       AVERAGE  MAXIMUM  AVERAGE  MAXIMUM
 CP2K                                 1  1.0     0.17     0.18 21729.62 21729.66
 cp_geo_opt                           1  2.0     0.05     0.05 21728.70 21728.71
 geoopt_bfgs                          1  3.0     0.20     0.27 21728.65 21728.69
 cp_eval_at                          59  4.0     0.14     0.17 21356.08 21356.16
 qs_forces                           58  5.0     0.09     0.14 21237.22 21237.24
 qs_energies                         59  6.0     0.26     0.30 20161.35 20161.45
 scf_env_do_scf                      59  7.0     0.11     0.24 19392.90 19392.95
 scf_env_do_scf_inner_loop         1462  8.0     0.35     0.52 18020.87 18020.92
 rebuild_ks_matrix                 1520  9.9     0.01     0.02  9386.72  9388.45
 qs_ks_build_kohn_sham_matrix      1520 10.9     0.95     1.54  9386.71  9388.44
 qs_ks_update_qs_env               1526  9.0     0.04     0.07  8332.47  8333.95
 qs_rho_update_rho                 1521  9.0     0.08     0.10  7963.60  7968.59
 calculate_rho_elec                3042 10.0  3941.15  4025.89  7963.52  7968.49
 sum_up_and_integrate               818 11.8    12.30    13.74  4977.19  4978.41
 integrate_v_rspace                1636 12.8  2692.22  2785.90  4964.88  4967.93
 pw_transfer                      47533 13.4     5.13     5.80  4931.77  4954.48
 fft_wrap_pw1pw2                  44493 14.4     0.52     0.58  4907.77  4930.53
 fft_wrap_pw1pw2_600              25781 15.7   284.60   320.94  4550.78  4570.54
 fft3d_ps                         44493 16.4  1325.75  1466.47  4241.72  4279.07
 rs_pw_transfer                   23684 13.0     0.31     0.36  3815.49  3872.27
 density_rs2pw                     3042 11.0     0.31     0.42  3607.68  3688.58
 qs_vxc_create                     1520 11.9     0.07     0.11  3450.07  3450.81
 dbcsr_multiply_generic           40397 13.7     2.79     4.28  2907.26  2913.48
 mp_alltoall_z22v                 44493 18.4  2541.75  2806.43  2541.75  2806.43
 mp_waitall_1                   8266808 16.7  2613.02  2700.49  2613.02  2700.49
 qs_scf_new_mos                    1462  9.0     0.01     0.02  2585.38  2587.42
 qs_scf_loop_do_ot                 1462 10.0     0.07     0.18  2585.37  2587.41
 xc_vxc_pw_create                   818 12.8   171.36   193.26  2525.20  2525.62
 ot_scf_mini                       1462 11.0     0.45     0.72  2362.19  2363.25
 multiply_cannon                  40397 14.7    12.97    13.77  2244.13  2284.23
 xc_rho_set_and_dset_create        1520 13.9    26.63    28.43  1890.27  1920.10
 potential_pw2rs                   1636 13.8     1.29     1.44  1796.01  1799.16
 mp_waitany                      849200 14.9  1691.62  1788.70  1691.62  1788.70
 x_to_yz                          19408 18.0   211.14   244.85  1658.53  1754.23
 rs_pw_transfer_RS2PW_600          3160 13.0   622.11   679.38  1595.38  1652.08
 multiply_cannon_metrocomm3      807940 15.7     2.17     2.35  1308.91  1457.90
 init_scf_loop                       64  8.0     0.04     0.12  1369.68  1369.71
 yz_to_x                          15729 16.9   128.97   135.38  1221.14  1351.35
 ot_mini                           1462 12.0     0.02     0.05  1258.16  1259.52
 qs_ks_update_qs_env_forces          58  6.0     0.00     0.00  1070.52  1070.71
 rs_pw_transfer_PW2RS_600          1812 15.4   404.78   443.85  1019.58  1049.32
 xc_exc_calc                        702 13.0     3.43     3.86   924.80   925.22
 qs_ot_get_derivative              1520 13.0     0.02     0.03   784.84   786.04
 prepare_preconditioner              64  9.0     0.00     0.00   735.22   735.39
 mp_alltoall_d11v                 37505 15.0   606.73   686.89   606.73   686.89
 multiply_cannon_metrocomm1      807940 15.7     2.49     2.69   543.48   686.39
 make_preconditioner                128 10.0     0.01     0.02   675.80   675.87
 rs_distribute_matrix              4794 12.0     5.88    11.87   576.85   654.13
 make_full_all                      128 11.0     0.05     0.19   619.54   619.75
 apply_preconditioner_dbcsr        1648 14.0     0.00     0.02   491.43   492.56
 apply_all                         1648 15.0     0.19     0.32   491.42   492.55
 init_scf_run                        59  7.0     0.00     0.01   478.22   478.24
 scf_env_initial_rho_setup           59  8.0     0.00     0.00   478.22   478.24
 wfi_extrapolate                     59  9.0     0.03     0.09   470.84   470.87
 ot_new_cg_direction                760 13.0     0.04     0.07   462.72   462.81
 cp_fm_syevd                       1106 13.5     0.01     0.01   454.83   456.70
 mp_sum_d                         42242 14.3   358.51   451.05   358.51   451.05
 cp_fm_redistribute_end            1106 14.5   132.67   437.07   135.55   439.80
 -------------------------------------------------------------------------------

 The number of warnings for this run is : 2
 
 -------------------------------------------------------------------------------
  **** **** ******  **  PROGRAM ENDED AT                 2019-07-10 01:14:42.232
 ***** ** ***  *** **   PROGRAM RAN ON            blg7124.int.ets1.calculquebec.
 **    ****   ******    PROGRAM RAN BY                                       rzk
 ***** **    ** ** **   PROGRAM PROCESS ID                                 26874
  **** **  *******  **  PROGRAM STOPPED IN /lustre04/scratch/rzk/rzk/GaN-carbene
                                           /443-adatoms-both-2x2/09-BondBreaking
                                           -CH/03-0501-CH-to-Nsur-PES
