     212
 i =        1, E =     -8504.6933480898
  N         0.0013598255        2.0534830993        2.5025835007
 Ga        -0.0025545636        0.0932983052        2.8549177095
  N        -0.0057414921        0.0590839604        5.0084955113
 Ga        -0.0039720072        1.8909759412        5.7982478445
  N        -0.0063181310        1.9001173543        7.7938663292
 Ga        -0.0046054716        0.0557354411        8.4411213766
  N        -0.0044843354        0.0549979837       10.4128183537
 Ga        -0.0049594039        1.8939668046       11.0722772366
  N        -0.0054352556        1.8750430444       13.0615163706
 Ga        -0.0061679042        0.0567715311       13.8758769601
  N        -0.0029385096        0.0552879172       16.0662065586
 Ga        -0.0054094809        2.1010034703       16.4870078469
 Ga         0.0315046908        3.7357127101        1.3688218866
  N        -1.4728504514        4.6351677110        2.4718863641
 Ga        -1.6803329772        2.7963472337        3.2631347128
  N        -1.6145604910        2.8441849071        5.2402976326
 Ga        -1.6406780252        4.7065174796        5.8105400554
  N        -1.6243992157        4.7049866806        7.7987668374
 Ga        -1.6025216041        2.8450478050        8.4404391870
  N        -1.6021038415        2.8478840575       10.4291800228
 Ga        -1.6305726473        4.7063654012       11.0754072172
  N        -1.6463693990        4.7165654368       13.0631089923
 Ga        -1.6017344371        2.8475968391       13.6229954476
  N        -1.6277774866        2.8341301162       15.5815263121
 Ga        -1.4487942842        4.6044757823       16.4874372651
  N         0.0000099506        3.7698449690       17.6283583122
  N        -3.2097852192        7.6019174888        2.5034811334
 Ga        -3.1960376572        5.6037925105        2.8519906544
  N        -3.2162266152        5.6244219145        5.0065408321
 Ga        -3.2283801078        7.4473253349        5.7990255629
  N        -3.2199158735        7.4729708758        7.7867239723
 Ga        -3.2231247995        5.6261236425        8.4467704858
  N        -3.2218684741        5.6277928985       10.4156950000
 Ga        -3.2233970472        7.4661462848       11.0735750692
  N        -3.2214856770        7.4458550855       13.0629621397
 Ga        -3.2212596900        5.6247990859       13.8779045849
  N        -3.2221206309        5.6271123052       16.0661326181
 Ga        -3.2232663034        7.6699999868       16.4790619769
 Ga        -3.2488730692        9.3606681102        1.4382304779
  N        -4.7259833931       10.2139808620        2.5135913657
 Ga        -4.9210373149        8.3602694224        3.2734085139
  N        -4.8302901298        8.4087944401        5.2334874659
 Ga        -4.8550384756       10.2844159003        5.7884874967
  N        -4.8377395765       10.2736557254        7.7829538821
 Ga        -4.8227197456        8.4176955304        8.4317219751
  N        -4.8177213901        8.4183717772       10.4223308035
 Ga        -4.8445769802       10.2766977845       11.0705408551
  N        -4.8617021611       10.2871989700       13.0610797657
 Ga        -4.8189359160        8.4181616547       13.6216065851
  N        -4.8508301691        8.4019515208       15.5787252807
 Ga        -4.6665487826       10.1752977853       16.4794604295
  N        -3.2191125337        9.3398203963       17.6017656450
  N         3.1954496332        1.9294119073        2.5921521451
 Ga         3.2066152208        0.1840162631        3.2723886507
  N         3.2138766607        0.0595882477        5.2354590062
 Ga         3.2098552473        1.9224750444        5.8718675080
  N         3.2135175971        1.9133175186        7.8444758827
 Ga         3.2089513546        0.0470919093        8.4367083458
  N         3.2110276519        0.0420184372       10.4260421078
 Ga         3.2111419432        1.9112295801       11.0300930831
  N         3.2108733761        1.9125988339       12.9962066739
 Ga         3.2108761952        0.0440937950       13.6209208005
  N         3.2091934319        0.0800183746       15.5781768638
 Ga         3.2106562005        1.9167212311       15.8633214537
  N         1.4715916318        4.6381534198        2.5136110096
 Ga         1.6851535302        2.8122976840        3.2943424172
  N         1.6035718452        2.8460810433        5.2567556422
 Ga         1.6537376282        4.7207509149        5.8240146710
  N         1.6016772727        4.7000104289        7.8231601145
 Ga         1.5919757240        2.8443122796        8.4445115849
  N         1.5922809594        2.8444699954       10.4338529582
 Ga         1.6198706886        4.7061612478       11.0722827894
  N         1.6351882559        4.7164725025       13.0630076858
 Ga         1.5914086404        2.8475035723       13.6233453622
  N         1.6163276113        2.8334422524       15.5827526631
 Ga         1.4422260995        4.6070555875       16.4873939473
  N        -0.0046142715        7.4715312745        2.6894301862
 Ga         0.0089447536        5.6188931391        3.3398900836
  N        -0.0070101798        5.6399337206        5.2651960286
 Ga         0.0015013194        7.4786806238        5.9072888277
  N        -0.0036748089        7.4860431632        7.8609057906
 Ga        -0.0066771314        5.6115040374        8.4553659789
  N        -0.0081225159        5.6154267176       10.4395803230
 Ga        -0.0066162493        7.4840952792       11.0350207156
  N        -0.0053836960        7.4839958368       12.9999369091
 Ga        -0.0053134443        5.6126939336       13.6235943382
  N        -0.0064277866        5.6432045168       15.5815976168
 Ga        -0.0018570250        7.4819151138       15.8620267712
  N        -1.7121742852       10.2052267941        2.5111049813
 Ga        -1.5954637685        8.4008555805        3.3251081615
  N        -1.5990477437        8.4057050197        5.2495420630
 Ga        -1.5897500359       10.2923455653        5.8051561744
  N        -1.6037936930       10.2728260034        7.7910403977
 Ga        -1.6259083902        8.4189867316        8.4466436115
  N        -1.6256387846        8.4189722445       10.4313246312
 Ga        -1.5983651422       10.2789669442       11.0738627795
  N        -1.5800806765       10.2879371682       13.0630664613
 Ga        -1.6246352304        8.4187040359       13.6232455758
  N        -1.5931747182        8.4007244426       15.5817842091
 Ga        -1.7751301732       10.1780608665       16.4787815909
  N         6.4275517535        2.0371225378        2.5327792827
 Ga         6.4290423091        0.0640456303        2.8841488297
  N         6.4293477420        0.0561058922        5.0174771911
 Ga         6.4212795073        1.8951626342        5.7972412335
  N         6.4260926707        1.9007741129        7.7896022503
 Ga         6.4276116395        0.0578983777        8.4456691861
  N         6.4271237717        0.0558266804       10.4146686934
 Ga         6.4282603579        1.8955317647       11.0731576680
  N         6.4281655535        1.8747196535       13.0614945803
 Ga         6.4289416914        0.0572219348       13.8783705244
  N         6.4266017461        0.0572996335       16.0661900897
 Ga         6.4244191397        2.1057428484       16.4891971495
 Ga         6.4676738372        3.7419631781        1.4911216003
  N         4.9245178505        4.6373509190        2.4144861483
 Ga         4.6984766410        2.8131642263        3.2732866661
  N         4.8182699813        2.8502081694        5.2324055438
 Ga         4.7763488610        4.7248830825        5.8158251461
  N         4.8212178404        4.6977073979        7.8170538485
 Ga         4.8303832524        2.8459509051        8.4476932401
  N         4.8307231169        2.8448844891       10.4347789750
 Ga         4.8044333566        4.7074933739       11.0710425090
  N         4.7874955170        4.7168524464       13.0617013971
 Ga         4.8310542321        2.8476935974       13.6217500730
  N         4.8022178714        2.8332864108       15.5787005792
 Ga         4.9851595060        4.6025894054       16.4898162621
  N         6.4267845048        3.7702588873       17.6277001457
  N         3.2048002239        7.6008602258        2.4111402801
  N         3.2128222292        5.6305742027        5.1463352803
 Ga         3.2201243165        7.4273163248        5.8268129079
  N         3.2102282573        7.4876519877        7.8204733933
 Ga         3.2124903455        5.6261292625        8.4428334492
  N         3.2116985928        5.6273511732       10.4191558795
 Ga         3.2131628211        7.4650849704       11.0735535035
  N         3.2116255187        7.4470296239       13.0634568373
 Ga         3.2116619464        5.6263798650       13.8755781189
  N         3.2135100306        5.6253976037       16.0670001724
 Ga         3.2099370975        7.6687290233       16.4877018984
 Ga         3.2375268977        9.3903342962        1.4447541424
  N         1.7082311833       10.1948945643        2.5165006918
 Ga         1.6039433318        8.3683681522        3.3146590871
  N         1.5988864089        8.4015361996        5.2391369447
 Ga         1.5806168748       10.2834221396        5.8045487342
  N         1.5921661519       10.2722536386        7.7912318115
 Ga         1.6157841475        8.4219141988        8.4583611672
  N         1.6120460921        8.4206450240       10.4403713787
 Ga         1.5879062589       10.2801337966       11.0760293079
  N         1.5707987372       10.2885114859       13.0631490424
 Ga         1.6150298518        8.4193883978       13.6241170477
  N         1.5882804560        8.4053622545       15.5820756690
 Ga         1.7666076002       10.1739029622       16.4879841547
  N         3.2138707715        9.3363261916       17.6285358756
  N         9.6535766541        1.9173361743        2.6068375002
 Ga         9.6524587180        0.1775311116        3.2891275287
  N         9.6425551172        0.0553169137        5.2460331150
 Ga         9.6518433892        1.9161062023        5.8751537141
  N         9.6435942851        1.9122158523        7.8448021040
 Ga         9.6459483955        0.0441957304        8.4355710595
  N         9.6433109878        0.0423262892       10.4252322588
 Ga         9.6428370973        1.9126622644       11.0253618926
  N         9.6429689201        1.9126068788       12.9945933390
 Ga         9.6435496301        0.0430642776       13.6240814759
  N         9.6425855212        0.0728560179       15.5822710049
 Ga         9.6437536793        1.9129989885       15.8591013941
  N         7.9306732870        4.6344146335        2.5234627437
 Ga         8.1482964505        2.7823731893        3.2997005395
  N         8.0391016872        2.8400685420        5.2526248471
 Ga         8.0531519745        4.7164257479        5.7909558488
  N         8.0456462638        4.7068672606        7.7856243719
 Ga         8.0250036389        2.8484329386        8.4334730964
  N         8.0240067443        2.8482528462       10.4243074853
 Ga         8.0506037278        4.7065594334       11.0730403805
  N         8.0684794770        4.7165142298       13.0614503873
 Ga         8.0233995016        2.8481404848       13.6241042471
  N         8.0513683479        2.8324232673       15.5825952380
 Ga         7.8672449889        4.6047088758       16.4894133925
  N         6.4329086469        7.4885699179        2.6077346085
 Ga         6.3983284543        5.7369937793        3.2674710956
  N         6.4208901940        5.6235396660        5.2262513084
 Ga         6.4190972407        7.4792179310        5.8599906745
  N         6.4254532851        7.4830797039        7.8332121801
 Ga         6.4294159252        5.6160609278        8.4436046921
  N         6.4303283734        5.6159460733       10.4316627394
 Ga         6.4294560022        7.4840527358       11.0298160992
  N         6.4275210642        7.4840434772       12.9957062669
 Ga         6.4277168355        5.6134496140       13.6222321121
  N         6.4259939414        5.6458543185       15.5790004831
 Ga         6.4237944075        7.4823365210       15.8642057913
  N         4.7157450709       10.2084200971        2.5168193707
 Ga         4.9017287064        8.3356124206        3.2650307722
  N         4.8094865753        8.4090008313        5.2248153590
 Ga         4.8471702589       10.2772296670        5.7912434309
  N         4.8305172721       10.2730437517        7.7855321559
 Ga         4.8126966706        8.4206251439        8.4456225107
  N         4.8115899691        8.4197722328       10.4327296110
 Ga         4.8353352930       10.2783182343       11.0726770927
  N         4.8513262440       10.2879253570       13.0614348925
 Ga         4.8083021883        8.4190298476       13.6240816164
  N         4.8329632528        8.4048647137       15.5832382700
 Ga         4.6564889675       10.1755822904       16.4875658557
  O         0.7141971010        3.8557881360       -0.3727060279
  H        -0.0105049755        7.4575896621        1.6638575300
  C         1.1431389086        2.5939767002       -0.9350932584
  H         1.8448596636        2.0658450698       -0.2681114598
  H         0.2852718872        1.9360357764       -1.1350836050
  H         1.6465383100        2.8040933938       -1.8890542591
 Ga         3.1698639443        5.5907533023        2.2634394025
  O         2.8223256825        5.4659818135        0.1360547120
  H         2.0508780182        4.8295326692       -0.0641609378
  C         3.8830358835        5.2436282999       -0.8125902621
  H         3.5300583372        5.4265890248       -1.8341340986
  H         4.6773453343        5.9649715340       -0.6130365154
  H         4.2988064861        4.2289640349       -0.7288938593
     212
 i =        2, E =     -8504.7307527580
  N         0.0013088648        2.0535550133        2.5026960676
 Ga        -0.0022371838        0.0930603954        2.8548219670
  N        -0.0059313730        0.0594981241        5.0085079057
 Ga        -0.0040057193        1.8912132464        5.7982438060
  N        -0.0063065728        1.9001835356        7.7938301145
 Ga        -0.0046760017        0.0558624084        8.4410224364
  N        -0.0044076640        0.0549046704       10.4127660612
 Ga        -0.0049442933        1.8939152523       11.0720481234
  N        -0.0053931510        1.8749597380       13.0616244441
 Ga        -0.0058367827        0.0565164224       13.8759398034
  N        -0.0018136486        0.0546678450       16.0661587687
 Ga        -0.0052473436        2.0990636049       16.4866328147
 Ga         0.0315370248        3.7357627329        1.3689031171
  N        -1.4728545852        4.6350671349        2.4720009454
 Ga        -1.6803548074        2.7963365941        3.2632588070
  N        -1.6145739163        2.8441672218        5.2403407019
 Ga        -1.6404904588        4.7063506180        5.8105184653
  N        -1.6243358747        4.7049526630        7.7986953153
 Ga        -1.6025305909        2.8450367330        8.4401562072
  N        -1.6020230557        2.8479417718       10.4289415364
 Ga        -1.6306310686        4.7064092819       11.0752082910
  N        -1.6464683569        4.7166651617       13.0631196534
 Ga        -1.6016954675        2.8477288609       13.6232246195
  N        -1.6275464218        2.8346501082       15.5825615793
 Ga        -1.4498035093        4.6057382520       16.4871184390
  N         0.0000716762        3.7689231074       17.6260243134
  N        -3.2119451035        7.6029245405        2.5044526955
 Ga        -3.1959944241        5.6042170119        2.8518968090
  N        -3.2159994553        5.6240241742        5.0065450033
 Ga        -3.2281506078        7.4472121017        5.7990391250
  N        -3.2198318430        7.4729030433        7.7870507908
 Ga        -3.2230654820        5.6259698054        8.4466467677
  N        -3.2219045559        5.6278837389       10.4155977978
 Ga        -3.2234468445        7.4662267681       11.0734208998
  N        -3.2215040951        7.4458421682       13.0626292772
 Ga        -3.2212379576        5.6251835176       13.8781694425
  N        -3.2224101884        5.6275976793       16.0658808202
 Ga        -3.2238572302        7.6713682788       16.4801342290
 Ga        -3.2486186631        9.3607033890        1.4381720519
  N        -4.7261245235       10.2114891829        2.5145519365
 Ga        -4.9339976855        8.3527040277        3.2669524290
  N        -4.8302350864        8.4087819282        5.2305801722
 Ga        -4.8550052335       10.2846500295        5.7885220984
  N        -4.8377617810       10.2737343589        7.7833096356
 Ga        -4.8226833786        8.4177047020        8.4317053050
  N        -4.8176697225        8.4183935090       10.4222431074
 Ga        -4.8444755365       10.2766075428       11.0703336670
  N        -4.8617315202       10.2871859471       13.0606988039
 Ga        -4.8190167297        8.4181399202       13.6211837135
  N        -4.8513637274        8.4023132061       15.5775365484
 Ga        -4.6645632878       10.1741500381       16.4808189303
  N        -3.2181713735        9.3393326641       17.6050328129
  N         3.1955192679        1.9295162814        2.5921931713
 Ga         3.2065606482        0.1838633457        3.2721865349
  N         3.2141546199        0.0598477797        5.2355127635
 Ga         3.2098390506        1.9226582211        5.8718558239
  N         3.2135235353        1.9133847171        7.8444934668
 Ga         3.2090642059        0.0471706910        8.4365592309
  N         3.2110108744        0.0419121635       10.4258683557
 Ga         3.2112345238        1.9110668383       11.0298960026
  N         3.2107783638        1.9127296885       12.9960087598
 Ga         3.2108464242        0.0441094668       13.6205253088
  N         3.2086413542        0.0802705876       15.5770231389
 Ga         3.2105189816        1.9164327001       15.8641612758
  N         1.4715627477        4.6381107642        2.5137628354
 Ga         1.6851834003        2.8122118977        3.2944249658
  N         1.6035258427        2.8461262296        5.2568200968
 Ga         1.6536350957        4.7206722637        5.8240021778
  N         1.6016463620        4.6999825077        7.8231523445
 Ga         1.5919842924        2.8442862076        8.4443120971
  N         1.5923462651        2.8444597015       10.4337642462
 Ga         1.6199053375        4.7061722629       11.0721164777
  N         1.6352497171        4.7165010594       13.0630822579
 Ga         1.5914917070        2.8475324801       13.6236068456
  N         1.6162690118        2.8341977659       15.5836994291
 Ga         1.4431745933        4.6081067747       16.4870798976
  N        -0.0045533942        7.4714814464        2.6894502738
 Ga         0.0088681336        5.6188440078        3.3399549594
  N        -0.0069912724        5.6398288439        5.2652348082
 Ga         0.0016306780        7.4785134556        5.9072662601
  N        -0.0036335322        7.4860033378        7.8609202391
 Ga        -0.0066938437        5.6114798190        8.4551154357
  N        -0.0081077543        5.6154522198       10.4394457145
 Ga        -0.0066450575        7.4841433118       11.0348816858
  N        -0.0052379629        7.4839765955       12.9999988810
 Ga        -0.0053418251        5.6126902322       13.6236059309
  N        -0.0061547964        5.6430158537       15.5819162892
 Ga        -0.0020215015        7.4820595314       15.8622051796
  N        -1.7118695672       10.2053702305        2.5110453991
 Ga        -1.5957172043        8.4008612251        3.3249088429
  N        -1.5986631828        8.4057793107        5.2495106059
 Ga        -1.5895202792       10.2924621104        5.8050996289
  N        -1.6037351640       10.2728177252        7.7910536615
 Ga        -1.6257908885        8.4190335204        8.4465206185
  N        -1.6256718711        8.4189690419       10.4312479952
 Ga        -1.5984417886       10.2789511289       11.0737154708
  N        -1.5800393604       10.2879595613       13.0627680696
 Ga        -1.6247673570        8.4187789236       13.6231716811
  N        -1.5930810141        8.4007028092       15.5814614519
 Ga        -1.7765650493       10.1779114725       16.4798461829
  N         6.4276237875        2.0369118515        2.5328516587
 Ga         6.4290356961        0.0640691522        2.8843861604
  N         6.4295191740        0.0562070266        5.0174444103
 Ga         6.4213215362        1.8950797940        5.7971634198
  N         6.4261048531        1.9007852096        7.7895187078
 Ga         6.4276592515        0.0579274429        8.4454604033
  N         6.4270682339        0.0557796702       10.4145356960
 Ga         6.4282343084        1.8955069509       11.0730633417
  N         6.4281379216        1.8745047517       13.0616024249
 Ga         6.4286768715        0.0569845486       13.8786713908
  N         6.4259827720        0.0573299013       16.0659722006
 Ga         6.4232382096        2.1053056678       16.4894426326
 Ga         6.4676722079        3.7416412695        1.4915139684
  N         4.9246240299        4.6373944376        2.4144656312
 Ga         4.6986235126        2.8130480028        3.2733154811
  N         4.8183591222        2.8500631659        5.2324105578
 Ga         4.7760723673        4.7246233265        5.8159362264
  N         4.8212077890        4.6976730571        7.8172043426
 Ga         4.8304262217        2.8458934598        8.4475552264
  N         4.8307122879        2.8449327902       10.4346987308
 Ga         4.8044961880        4.7074983615       11.0709613596
  N         4.7873431570        4.7169662097       13.0616992985
 Ga         4.8309827479        2.8477629381       13.6216239046
  N         4.8010515055        2.8339708449       15.5783827409
 Ga         4.9861138206        4.6020416237       16.4904266162
  N         6.4284304177        3.7692580050       17.6251405987
  N         3.2053040461        7.6010912595        2.4113535814
  N         3.2126663295        5.6304042627        5.1463231554
 Ga         3.2198001720        7.4271430309        5.8268965802
  N         3.2101922120        7.4876398853        7.8206680807
 Ga         3.2124601371        5.6260751683        8.4426603447
  N         3.2117563380        5.6273655469       10.4190650037
 Ga         3.2132096576        7.4650997374       11.0734224378
  N         3.2116576203        7.4470251724       13.0635224078
 Ga         3.2117035777        5.6264211869       13.8757399046
  N         3.2143157045        5.6248653631       16.0673044982
 Ga         3.2095232369        7.6671991947       16.4872477462
 Ga         3.2372614060        9.3905100032        1.4450365980
  N         1.7080848354       10.1950578864        2.5165978327
 Ga         1.6039569734        8.3685153447        3.3146169215
  N         1.5987585001        8.4016538410        5.2391007123
 Ga         1.5805565008       10.2834987096        5.8044735284
  N         1.5921717507       10.2722258480        7.7911485366
 Ga         1.6157369072        8.4219668498        8.4581732130
  N         1.6120806692        8.4206215235       10.4402879006
 Ga         1.5878804145       10.2801492108       11.0758671267
  N         1.5706925416       10.2885374303       13.0631831309
 Ga         1.6150847018        8.4194494086       13.6241630993
  N         1.5886683686        8.4053004597       15.5824679490
 Ga         1.7648370344       10.1742781613       16.4875197852
  N         3.2146529038        9.3367444677       17.6259455180
  N         9.6535986018        1.9173711071        2.6070192023
 Ga         9.6523749195        0.1775533298        3.2891731207
  N         9.6423552721        0.0554676721        5.2460610061
 Ga         9.6519016523        1.9161553177        5.8750796174
  N         9.6436190104        1.9122359027        7.8447127228
 Ga         9.6458933797        0.0442491569        8.4353140588
  N         9.6433285345        0.0422051017       10.4250237254
 Ga         9.6428763042        1.9126133320       11.0251315697
  N         9.6429862877        1.9125384271       12.9946230118
 Ga         9.6434667372        0.0428998434       13.6243395329
  N         9.6422380419        0.0723039737       15.5833446907
 Ga         9.6438717878        1.9128855605       15.8603101585
  N         7.9306722283        4.6343493260        2.5234056259
 Ga         8.1482365129        2.7822237360        3.2997542656
  N         8.0391277975        2.8398434262        5.2526272024
 Ga         8.0534081628        4.7161100414        5.7910436639
  N         8.0456626875        4.7068255801        7.7857358534
 Ga         8.0250173636        2.8483714008        8.4332856048
  N         8.0239815966        2.8483000908       10.4241926456
 Ga         8.0505875622        4.7066199430       11.0729485843
  N         8.0686276222        4.7166596594       13.0615296250
 Ga         8.0232001853        2.8482684016       13.6245351631
  N         8.0515760376        2.8322807340       15.5838379041
 Ga         7.8669939488        4.6059294501       16.4896854847
  N         6.4221599624        7.4791511355        2.5755952443
 Ga         6.3982811617        5.7382912817        3.2667139231
  N         6.4208840459        5.6230872911        5.2263141793
 Ga         6.4191390637        7.4792211086        5.8600912591
  N         6.4254176544        7.4830279410        7.8336403576
 Ga         6.4294415611        5.6159288696        8.4435871460
  N         6.4303119993        5.6159810971       10.4316543296
 Ga         6.4296109559        7.4840642797       11.0296227498
  N         6.4273062595        7.4840818937       12.9954753597
 Ga         6.4276285585        5.6135358976       13.6220650375
  N         6.4247991593        5.6465321790       15.5786389132
 Ga         6.4239287765        7.4826232020       15.8650004368
  N         4.7156636019       10.2079428930        2.5169832691
 Ga         4.9053094872        8.3335286012        3.2631608613
  N         4.8091612007        8.4091385720        5.2242983372
 Ga         4.8470433158       10.2775668046        5.7913158242
  N         4.8305115072       10.2730674510        7.7856974806
 Ga         4.8126478861        8.4206752219        8.4455808766
  N         4.8116490956        8.4197120688       10.4327422798
 Ga         4.8353587527       10.2782762882       11.0724839812
  N         4.8513826494       10.2878782566       13.0615380743
 Ga         4.8083158509        8.4189477951       13.6243445615
  N         4.8322085890        8.4045840574       15.5842019150
 Ga         4.6583672681       10.1764839286       16.4870357500
  O         0.7137388861        3.8556406398       -0.3728599437
  H        -0.0105541899        7.4575999976        1.6640112383
  C         1.1431438593        2.5938580870       -0.9351102628
  H         1.8448635925        2.0658765266       -0.2682710576
  H         0.2853469906        1.9360965439       -1.1350630399
  H         1.6463419711        2.8041640636       -1.8889494975
 Ga         3.1697657584        5.5907330064        2.2622605407
  O         2.8252799886        5.4646968828        0.1339884977
  H         2.0514126647        4.8302232167       -0.0638024773
  C         3.8936048642        5.2532960464       -0.8096246126
  H         3.5307549358        5.4256451466       -1.8309720291
  H         4.6868201534        5.9728732354       -0.5755690200
  H         4.2968957739        4.2324970231       -0.7294063761
     212
 i =        3, E =     -8504.7308310938
  N         0.0014912375        2.0538176752        2.5029560455
 Ga        -0.0023245877        0.0929206759        2.8545928638
  N        -0.0057668960        0.0594505210        5.0084240020
 Ga        -0.0039507627        1.8910787871        5.7984286569
  N        -0.0061891066        1.9002285619        7.7940283116
 Ga        -0.0046309499        0.0559119302        8.4409648696
  N        -0.0048855530        0.0552210558       10.4128829322
 Ga        -0.0049318513        1.8940585006       11.0726072737
  N        -0.0055652323        1.8757108933       13.0627075209
 Ga        -0.0049757640        0.0561678052       13.8741566690
  N        -0.0030421427        0.0552431351       16.0669742882
 Ga        -0.0053487704        2.0996976796       16.4843003010
 Ga         0.0314700313        3.7355301662        1.3678710569
  N        -1.4724577956        4.6349789990        2.4721517130
 Ga        -1.6804589715        2.7962349289        3.2634055553
  N        -1.6144697030        2.8441628303        5.2406033787
 Ga        -1.6405883369        4.7063982540        5.8106715740
  N        -1.6241782470        4.7049602522        7.7988674583
 Ga        -1.6024004740        2.8450615752        8.4402505918
  N        -1.6020615207        2.8477717672       10.4292369102
 Ga        -1.6305574806        4.7062373909       11.0755430084
  N        -1.6460413914        4.7162827500       13.0639952752
 Ga        -1.6024361670        2.8474238537       13.6229204236
  N        -1.6284080942        2.8339531350       15.5821734893
 Ga        -1.4500208536        4.6049644064       16.4844295964
  N        -0.0000897168        3.7688058984       17.6272132195
  N        -3.2118569044        7.6030447405        2.5045484030
 Ga        -3.1961367986        5.6040921040        2.8517052740
  N        -3.2159615471        5.6241445707        5.0064933212
 Ga        -3.2280235746        7.4471551560        5.7992746491
  N        -3.2197320913        7.4729549216        7.7872305886
 Ga        -3.2229626482        5.6259653760        8.4465163474
  N        -3.2218529687        5.6275228262       10.4156435151
 Ga        -3.2232567096        7.4660290363       11.0732270266
  N        -3.2217425310        7.4465410241       13.0625439819