 DBCSR| Multiplication driver                                               BLAS
 DBCSR| Multrec recursion limit                                              512
 DBCSR| Multiplication stack size                                           1000
 DBCSR| Maximum elements for images                                    UNLIMITED
 DBCSR| Multiplicative factor virtual images                                   1
 DBCSR| Multiplication size stacks                                             3
 DBCSR| Number of 3D layers                                               SINGLE
 DBCSR| Use MPI memory allocation                                              T
 DBCSR| Use RMA algorithm                                                      F
 DBCSR| Use Communication thread                                               T
 DBCSR| Communication thread load                                             87


  **** **** ******  **  PROGRAM STARTED AT               2019-05-14 23:56:13.896
 ***** ** ***  *** **   PROGRAM STARTED ON        blg8636.int.ets1.calculquebec.
 **    ****   ******    PROGRAM STARTED BY                                   rzk
 ***** **    ** ** **   PROGRAM PROCESS ID                                336701
  **** **  *******  **  PROGRAM STARTED IN /lustre03/project/6004141/rzk/GaN-car
                                           bene/00-Surface/00-Preoptimization/11
                                           4-native/Trial3

 CP2K| version string:                    CP2K version 7.0 (Development Version)
 CP2K| source code revision number:                                    svn:18619
 CP2K| cp2kflags: libint fftw3 libxc parallel mpi3 scalapack mkl                
 CP2K| is freely available from                            https://www.cp2k.org/
 CP2K| Program compiled at                          Sun Apr  7 00:48:11 EDT 2019
 CP2K| Program compiled on                      beluga2.int.ets1.calculquebec.ca
 CP2K| Program compiled for                    Beluga-Linux-x86-64-intel-openmpi
 CP2K| Data directory path    /home/rzk/projects/def-rzk/group/cp2k/cp2k-mcgill/
 CP2K| Input file name                                            114-native.inp
 
 GLOBAL| Force Environment number                                              1
 GLOBAL| Basis set file name                                        BASIS_MOLOPT
 GLOBAL| Potential file name                                      GTH_POTENTIALS
 GLOBAL| MM Potential file name                                     MM_POTENTIAL
 GLOBAL| Coordinate file name                                     114-native.xyz
 GLOBAL| Method name                                                        CP2K
 GLOBAL| Project name                                                       TEST
 GLOBAL| Preferred FFT library                                             FFTW3
 GLOBAL| Preferred diagonalization lib.                                       SL
 GLOBAL| Run type                                                       CELL_OPT
 GLOBAL| All-to-all communication in single precision                          F
 GLOBAL| FFTs using library dependent lengths                                  F
 GLOBAL| Global print level                                                  LOW
 GLOBAL| MPI I/O enabled                                                       T
 GLOBAL| Total number of message passing processes                            40
 GLOBAL| Number of threads for this process                                    1
 GLOBAL| This output is from process                                           0
 GLOBAL| CPU model name :  Intel(R) Xeon(R) Gold 6148 CPU @ 2.40GHz

 MEMORY| system memory details [Kb]
 MEMORY|                        rank 0           min           max       average
 MEMORY| MemTotal             97523924      97523924      97523924      97523924
 MEMORY| MemFree              78506316      78505324      78506316      78506291
 MEMORY| Buffers                    76            76            76            76
 MEMORY| Cached                1323116       1323116       1323116       1323116
 MEMORY| Slab                  1900980       1900980       1900980       1900980
 MEMORY| SReclaimable           459640        459640        459640        459640
 MEMORY| MemLikelyFree        80289148      80288156      80289148      80289123

 
 GENERATE|  Preliminary Number of Bonds generated:                             0
 GENERATE|  Achieved consistency in connectivity generation.

 *******************************************************************************
 *******************************************************************************
 **                                                                           **
 **     #####                         ##              ##                      **
 **    ##   ##            ##          ##              ##                      **
 **   ##     ##                       ##            ######                    **
 **   ##     ##  ##   ##  ##   #####  ##  ##   ####   ##    #####    #####    **
 **   ##     ##  ##   ##  ##  ##      ## ##   ##      ##   ##   ##  ##   ##   **
 **   ##  ## ##  ##   ##  ##  ##      ####     ###    ##   ######   ######    **
 **    ##  ###   ##   ##  ##  ##      ## ##      ##   ##   ##       ##        **
 **     #######   #####   ##   #####  ##  ##  ####    ##    #####   ##        **
 **           ##                                                    ##        **
 **                                                                           **
 **                                                ... make the atoms dance   **
 **                                                                           **
 **            Copyright (C) by CP2K developers group (2000 - 2018)           **
 **                                                                           **
 *******************************************************************************

 *** WARNING in qs_environment.F:1146 :: More added MOs requested than ***
 *** available. The full set of unoccupied MOs will be used.           ***



 TOTAL NUMBERS AND MAXIMUM NUMBERS

  Total number of            - Atomic kinds:                                   2
                             - Atoms:                                         16
                             - Shell sets:                                    16
                             - Shells:                                        96
                             - Primitive Cartesian functions:                 88
                             - Cartesian basis functions:                    352
                             - Spherical basis functions:                    304

  Maximum angular momentum of- Orbital basis functions:                        3
                             - Local part of the GTH pseudopotential:          2
                             - Non-local part of the GTH pseudopotential:      4


 SCF PARAMETERS         Density guess:                                    ATOMIC
                        --------------------------------------------------------
                        max_scf:                                             500
                        max_scf_history:                                       0
                        max_diis:                                              4
                        --------------------------------------------------------
                        eps_scf:                                        1.00E-06
                        eps_scf_history:                                0.00E+00
                        eps_diis:                                       1.00E-01
                        eps_eigval:                                     1.00E-05
                        --------------------------------------------------------
                        level_shift [a.u.]:                                 0.00
                        added MOs                                       232    0
                        --------------------------------------------------------
                        Mixing method:                              PULAY_MIXING
                                                charge density mixing in g-space
                        --------------------------------------------------------
                        No outer SCF

 CELL_OPT| Pressure tolerance [bar]:                                       100.0
 CELL_OPT| Keep angles between the cell vectors:                             YES
 CELL_OPT| Keep cell symmetry:                                               YES
 CELL_OPT| Constraint:                                                         Z

 BFGS| Use rational function optimization for step estimation:                NO
 BFGS| Use model Hessian for initial guess:                                   NO
 BFGS| Restart Hessian:                                                       NO
 BFGS| Trust radius:                                                       0.472

 *******************************************************************************
 ***                     STARTING   CELL   OPTIMIZATION                      ***
 ***                                   BFGS                                  ***
 *******************************************************************************

 CELL| Volume [angstrom^3]:                                              351.627
 CELL| Vector a [angstrom]:       3.186     0.000     0.000    |a| =       3.186
 CELL| Vector b [angstrom]:      -1.593     2.759     0.000    |b| =       3.186
 CELL| Vector c [angstrom]:       0.000     0.000    40.000    |c| =      40.000
 CELL| Angle (b,c), alpha [degree]:                                       90.000
 CELL| Angle (a,c), beta  [degree]:                                       90.000
 CELL| Angle (a,b), gamma [degree]:                                      120.000
 CELL| Numerically orthorhombic:                                              NO

 Number of electrons:                                                        144
 Number of occupied orbitals:                                                 72
 Number of molecular orbitals:                                               304

 Number of orbital functions:                                                304
 Number of independent orbital functions:                                    304

 Extrapolation method: initial_guess


 SCF WAVEFUNCTION OPTIMIZATION

  Step     Update method      Time    Convergence         Total energy    Change
  ------------------------------------------------------------------------------
     1 NoMix/Diag. 0.10E+00    0.7     3.17972806      -677.7608310229 -6.78E+02
     2 Pulay/Diag. 0.10E+00    0.5     4.48877729      -630.8005112161  4.70E+01
     3 Pulay/Diag. 0.10E+00    0.5    12.03689903      -654.2408954884 -2.34E+01
     4 Pulay/Diag. 0.10E+00    0.5    18.30835872      -693.2245981565 -3.90E+01
     5 Pulay/Diag. 0.10E+00    0.5    17.70099612      -694.5447627390 -1.32E+00
     6 Pulay/Diag. 0.10E+00    0.5     7.51833529      -658.4369982893  3.61E+01
     7 Pulay/Diag. 0.10E+00    0.5     7.50457165      -655.3995005119  3.04E+00
     8 Pulay/Diag. 0.10E+00    0.5     1.16798406      -653.0501204398  2.35E+00
     9 Pulay/Diag. 0.10E+00    0.5     0.93488415      -653.7319296253 -6.82E-01
    10 Pulay/Diag. 0.10E+00    0.5     5.37735258      -654.7557242481 -1.02E+00
    11 Pulay/Diag. 0.10E+00    0.5     7.74450976      -658.6130652130 -3.86E+00
    12 Pulay/Diag. 0.10E+00    0.5     7.93900180      -664.9044042389 -6.29E+00
    13 Pulay/Diag. 0.10E+00    0.5     8.98976578      -676.2052236778 -1.13E+01
    14 Pulay/Diag. 0.10E+00    0.5     9.77916271      -663.3863970882  1.28E+01
    15 Pulay/Diag. 0.10E+00    0.5     9.76489924      -669.0322604723 -5.65E+00
    16 Pulay/Diag. 0.10E+00    0.5     2.92417902      -662.1228019496  6.91E+00
    17 Pulay/Diag. 0.10E+00    0.5     0.59821604      -663.7312479293 -1.61E+00
    18 Pulay/Diag. 0.10E+00    0.5     1.53718384      -663.7185625574  1.27E-02
    19 Pulay/Diag. 0.10E+00    0.5     5.76505389      -664.3889346915 -6.70E-01
    20 Pulay/Diag. 0.10E+00    0.7     9.19207776      -665.6683004071 -1.28E+00
    21 Pulay/Diag. 0.10E+00    0.5     9.19216636      -672.5545993114 -6.89E+00
    22 Pulay/Diag. 0.10E+00    0.5     3.84713172      -669.1389926044  3.42E+00
    23 Pulay/Diag. 0.10E+00    0.5     3.55825574      -669.3072428399 -1.68E-01
    24 Pulay/Diag. 0.10E+00    0.5     3.43415760      -669.6908387758 -3.84E-01
    25 Pulay/Diag. 0.10E+00    0.5     1.77442204      -670.8490499627 -1.16E+00
    26 Pulay/Diag. 0.10E+00    0.5     0.88950201      -671.9714161913 -1.12E+00
    27 Pulay/Diag. 0.10E+00    0.5     4.78341307      -671.7492286824  2.22E-01
    28 Pulay/Diag. 0.10E+00    0.5     2.12714481      -672.2085002181 -4.59E-01
    29 Pulay/Diag. 0.10E+00    0.5     2.64512962      -672.0073014824  2.01E-01
    30 Pulay/Diag. 0.10E+00    0.5     9.65779748      -671.2644810328  7.43E-01
    31 Pulay/Diag. 0.10E+00    0.5     9.64943041      -685.9224621802 -1.47E+01
    32 Pulay/Diag. 0.10E+00    0.5     3.02828073      -670.1354483915  1.58E+01
    33 Pulay/Diag. 0.10E+00    0.5     3.28963976      -671.9813996577 -1.85E+00
    34 Pulay/Diag. 0.10E+00    0.5     1.31989374      -669.7719814322  2.21E+00
    35 Pulay/Diag. 0.10E+00    0.5     1.32273493      -670.1412841795 -3.69E-01
    36 Pulay/Diag. 0.10E+00    0.5     0.88273037      -670.0229781291  1.18E-01
    37 Pulay/Diag. 0.10E+00    0.5     3.53419692      -669.7596623076  2.63E-01
    38 Pulay/Diag. 0.10E+00    0.5     2.88174183      -673.6337471557 -3.87E+00
    39 Pulay/Diag. 0.10E+00    0.5     3.69982198      -672.7174700371  9.16E-01
    40 Pulay/Diag. 0.10E+00    0.5     2.86227338      -673.2430145668 -5.26E-01
    41 Pulay/Diag. 0.10E+00    0.5     1.40630646      -671.9259415450  1.32E+00
    42 Pulay/Diag. 0.10E+00    0.5     1.47392073      -671.5811573251  3.45E-01
    43 Pulay/Diag. 0.10E+00    0.5     1.00524262      -670.3600030713  1.22E+00
    44 Pulay/Diag. 0.10E+00    0.5     0.97767407      -671.2644363172 -9.04E-01
    45 Pulay/Diag. 0.10E+00    0.5     0.71912257      -670.6489537273  6.15E-01
    46 Pulay/Diag. 0.10E+00    0.5     2.79479762      -671.9536015578 -1.30E+00
    47 Pulay/Diag. 0.10E+00    0.5     3.54546194      -673.2956871882 -1.34E+00
    48 Pulay/Diag. 0.10E+00    0.5     3.79396274      -674.6321603241 -1.34E+00
    49 Pulay/Diag. 0.10E+00    0.6     3.62904273      -673.8054964727  8.27E-01
    50 Pulay/Diag. 0.10E+00    0.6     0.94413767      -672.2841808412  1.52E+00
    51 Pulay/Diag. 0.10E+00    0.5     0.09076344      -671.5783255998  7.06E-01
    52 Pulay/Diag. 0.10E+00    0.5     1.02516635      -671.8486141053 -2.70E-01
    53 Pulay/Diag. 0.10E+00    0.5     1.04676093      -672.9087593971 -1.06E+00
    54 Pulay/Diag. 0.10E+00    0.5     1.04500719      -672.8069283129  1.02E-01
    55 Pulay/Diag. 0.10E+00    0.5     2.94552899      -672.8977340433 -9.08E-02
    56 Pulay/Diag. 0.10E+00    0.5     2.06422926      -675.8370034338 -2.94E+00
    57 Pulay/Diag. 0.10E+00    0.5     2.97217680      -674.3573256782  1.48E+00
    58 Pulay/Diag. 0.10E+00    0.5     2.93927041      -673.6996063714  6.58E-01
    59 Pulay/Diag. 0.10E+00    0.5     0.08457175      -672.9884146743  7.11E-01
    60 Pulay/Diag. 0.10E+00    0.5     1.05336236      -672.7347261129  2.54E-01
    61 Pulay/Diag. 0.10E+00    0.5     1.00888511      -672.1629714210  5.72E-01
    62 Pulay/Diag. 0.10E+00    0.5     0.61264587      -672.8941607594 -7.31E-01
    63 Pulay/Diag. 0.10E+00    0.5     0.71487060      -672.9485927774 -5.44E-02
    64 Pulay/Diag. 0.10E+00    0.5     0.68135259      -672.0256806321  9.23E-01
    65 Pulay/Diag. 0.10E+00    0.5     1.31892009      -673.3692475075 -1.34E+00
    66 Pulay/Diag. 0.10E+00    0.5     1.42686210      -674.0885021049 -7.19E-01
    67 Pulay/Diag. 0.10E+00    0.5     0.79922504      -673.3344472270  7.54E-01
    68 Pulay/Diag. 0.10E+00    0.5     0.07686157      -672.4880128445  8.46E-01
    69 Pulay/Diag. 0.10E+00    0.5     0.19048605      -672.5870949401 -9.91E-02
    70 Pulay/Diag. 0.10E+00    0.5     0.80730198      -672.4940698029  9.30E-02
    71 Pulay/Diag. 0.10E+00    0.5     0.79994419      -673.5787751537 -1.08E+00
    72 Pulay/Diag. 0.10E+00    0.5     0.85383435      -672.7340496241  8.45E-01
    73 Pulay/Diag. 0.10E+00    0.5     0.60555889      -673.6228884435 -8.89E-01
    74 Pulay/Diag. 0.10E+00    0.5     0.53291872      -673.6515689997 -2.87E-02
    75 Pulay/Diag. 0.10E+00    0.5     0.04417255      -672.7655693849  8.86E-01
    76 Pulay/Diag. 0.10E+00    0.5     0.95917391      -672.9132250889 -1.48E-01
    77 Pulay/Diag. 0.10E+00    0.5     1.08136342      -673.7567117641 -8.43E-01
    78 Pulay/Diag. 0.10E+00    0.5     1.10658902      -673.7821244503 -2.54E-02
    79 Pulay/Diag. 0.10E+00    0.6     0.76710431      -673.8033763088 -2.13E-02
    80 Pulay/Diag. 0.10E+00    0.6     0.51403319      -673.7938147173  9.56E-03
    81 Pulay/Diag. 0.10E+00    0.5     0.67181370      -673.7751625334  1.87E-02
    82 Pulay/Diag. 0.10E+00    0.5     0.01706092      -672.9413629795  8.34E-01
    83 Pulay/Diag. 0.10E+00    0.5     0.02085542      -672.9611371339 -1.98E-02
    84 Pulay/Diag. 0.10E+00    0.5     0.01813574      -672.9307152160  3.04E-02
    85 Pulay/Diag. 0.10E+00    0.5     0.00474249      -672.9695828941 -3.89E-02
    86 Pulay/Diag. 0.10E+00    0.5     0.00025386      -672.9789626361 -9.38E-03
    87 Pulay/Diag. 0.10E+00    0.5     0.85885457      -672.9830257669 -4.06E-03
    88 Pulay/Diag. 0.10E+00    0.5     0.51735447      -673.7626198948 -7.80E-01
    89 Pulay/Diag. 0.10E+00    0.5     0.99468176      -673.8074983702 -4.49E-02
    90 Pulay/Diag. 0.10E+00    0.5     0.81240147      -674.2438122705 -4.36E-01
    91 Pulay/Diag. 0.10E+00    0.5     0.63807322      -673.8088456694  4.35E-01
    92 Pulay/Diag. 0.10E+00    0.5     0.73408426      -673.7902014624  1.86E-02
    93 Pulay/Diag. 0.10E+00    0.5     0.30337969      -673.7853198600  4.88E-03
    94 Pulay/Diag. 0.10E+00    0.5     1.02328806      -673.7832817618  2.04E-03
    95 Pulay/Diag. 0.10E+00    0.5     0.60716385      -672.9773729438  8.06E-01
    96 Pulay/Diag. 0.10E+00    0.5     0.21881837      -673.7897082866 -8.12E-01
    97 Pulay/Diag. 0.10E+00    0.5     0.30649072      -673.7875417583  2.17E-03
    98 Pulay/Diag. 0.10E+00    0.5     0.35879750      -673.7848781579  2.66E-03
    99 Pulay/Diag. 0.10E+00    0.5     0.01330575      -673.7856234963 -7.45E-04
   100 Pulay/Diag. 0.10E+00    0.5     0.76417588      -673.7818838593  3.74E-03
   101 Pulay/Diag. 0.10E+00    0.5     0.00381165      -672.9697768699  8.12E-01
   102 Pulay/Diag. 0.10E+00    0.5     0.69865516      -672.9775912211 -7.81E-03
   103 Pulay/Diag. 0.10E+00    0.5     0.01992572      -673.7870394954 -8.09E-01
   104 Pulay/Diag. 0.10E+00    0.5     0.68132055      -673.7848650291  2.17E-03
   105 Pulay/Diag. 0.10E+00    0.5     0.68871017      -672.9520489271  8.33E-01
   106 Pulay/Diag. 0.10E+00    0.5     0.68677615      -673.7759916545 -8.24E-01
   107 Pulay/Diag. 0.10E+00    0.5     0.64360027      -672.9146476848  8.61E-01
   108 Pulay/Diag. 0.10E+00    0.5     0.04725183      -673.7501497138 -8.36E-01
   109 Pulay/Diag. 0.10E+00    0.6     0.04812460      -673.7799590773 -2.98E-02
   110 Pulay/Diag. 0.10E+00    0.6     0.62131132      -673.7855104478 -5.55E-03
   111 Pulay/Diag. 0.10E+00    0.5     0.00517750      -672.9788587468  8.07E-01
   112 Pulay/Diag. 0.10E+00    0.5     0.00350037      -672.9682103871  1.06E-02
   113 Pulay/Diag. 0.10E+00    0.5     0.00297035      -672.9615168728  6.69E-03
   114 Pulay/Diag. 0.10E+00    0.5     0.69927757      -672.9651476561 -3.63E-03
   115 Pulay/Diag. 0.10E+00    0.5     0.08066988      -673.7753302137 -8.10E-01
   116 Pulay/Diag. 0.10E+00    0.5     0.02576762      -673.8042024003 -2.89E-02
   117 Pulay/Diag. 0.10E+00    0.5     0.59290813      -673.7940922812  1.01E-02
   118 Pulay/Diag. 0.10E+00    0.5     0.67662690      -672.9460624478  8.48E-01
   119 Pulay/Diag. 0.10E+00    0.5     0.12433508      -673.6867113773 -7.41E-01
   120 Pulay/Diag. 0.10E+00    0.5     0.08505024      -673.7830530161 -9.63E-02
   121 Pulay/Diag. 0.10E+00    0.5     1.15967959      -673.7899972664 -6.94E-03
   122 Pulay/Diag. 0.10E+00    0.5     0.07709170      -673.7919507759 -1.95E-03
   123 Pulay/Diag. 0.10E+00    0.5     0.07415708      -673.7916381877  3.13E-04
   124 Pulay/Diag. 0.10E+00    0.5     0.61248620      -673.7910009982  6.37E-04
   125 Pulay/Diag. 0.10E+00    0.5     0.00788444      -672.9784032655  8.13E-01
   126 Pulay/Diag. 0.10E+00    0.5     0.59208358      -672.9834445562 -5.04E-03
   127 Pulay/Diag. 0.10E+00    0.5     0.59207165      -673.7853364368 -8.02E-01
   128 Pulay/Diag. 0.10E+00    0.5     0.00577666      -672.9627489085  8.23E-01
   129 Pulay/Diag. 0.10E+00    0.5     0.00070794      -672.9745330367 -1.18E-02
   130 Pulay/Diag. 0.10E+00    0.5     0.00210219      -672.9730421153  1.49E-03
   131 Pulay/Diag. 0.10E+00    0.5     0.78865043      -672.9768764267 -3.83E-03
   132 Pulay/Diag. 0.10E+00    0.5     0.79021581      -673.7721793691 -7.95E-01
   133 Pulay/Diag. 0.10E+00    0.5     0.24856760      -672.8788005365  8.93E-01
   134 Pulay/Diag. 0.10E+00    0.5     0.20797501      -673.3348347737 -4.56E-01
   135 Pulay/Diag. 0.10E+00    0.5     0.82954693      -672.9442981258  3.91E-01
   136 Pulay/Diag. 0.10E+00    0.5     0.23030192      -673.7626805236 -8.18E-01
   137 Pulay/Diag. 0.10E+00    0.6     0.97475226      -673.7939394714 -3.13E-02
   138 Pulay/Diag. 0.10E+00    0.8     0.00629706      -672.9621281294  8.32E-01
   139 Pulay/Diag. 0.10E+00    0.7     0.01152618      -672.9526907797  9.44E-03
   140 Pulay/Diag. 0.10E+00    0.6     0.70334211      -672.9720671477 -1.94E-02
   141 Pulay/Diag. 0.10E+00    0.5     0.74073694      -673.7599097710 -7.88E-01
   142 Pulay/Diag. 0.10E+00    0.6     0.66174490      -673.8189769472 -5.91E-02
   143 Pulay/Diag. 0.10E+00    0.8     1.12953865      -673.8069507662  1.20E-02
   144 Pulay/Diag. 0.10E+00    0.8     0.07701660      -673.8057794896  1.17E-03
   145 Pulay/Diag. 0.10E+00    0.7     0.05888792      -673.8022145252  3.56E-03
   146 Pulay/Diag. 0.10E+00    0.7     0.02606854      -673.8036746042 -1.46E-03
   147 Pulay/Diag. 0.10E+00    0.7     0.02500675      -673.8040166814 -3.42E-04
   148 Pulay/Diag. 0.10E+00    0.7     6.22535894      -673.4048324635  3.99E-01
   149 Pulay/Diag. 0.10E+00    0.7     6.24027359      -675.0286505194 -1.62E+00
   150 Pulay/Diag. 0.10E+00    0.7     0.14166930      -671.7074268818  3.32E+00
   151 Pulay/Diag. 0.10E+00    0.7     0.70678657      -672.5904705456 -8.83E-01
   152 Pulay/Diag. 0.10E+00    0.7     0.68580425      -673.6714080999 -1.08E+00
   153 Pulay/Diag. 0.10E+00    0.8     0.02514896      -672.7061332015  9.65E-01
   154 Pulay/Diag. 0.10E+00    0.7     0.01423662      -672.7660517914 -5.99E-02
   155 Pulay/Diag. 0.10E+00    0.7     1.27144917      -672.7616270016  4.42E-03
   156 Pulay/Diag. 0.10E+00    0.7     1.34092280      -673.6697930769 -9.08E-01
   157 Pulay/Diag. 0.10E+00    0.7     1.33454206      -674.2725714307 -6.03E-01
   158 Pulay/Diag. 0.10E+00    0.7     1.09064708      -673.8659187361  4.07E-01
   159 Pulay/Diag. 0.10E+00    0.7     0.09640005      -673.0751630764  7.91E-01
   160 Pulay/Diag. 0.10E+00    0.7     0.83943631      -672.8532740050  2.22E-01
   161 Pulay/Diag. 0.10E+00    0.7     0.62010967      -673.8053866785 -9.52E-01
   162 Pulay/Diag. 0.10E+00    0.7     1.02529369      -673.8336036354 -2.82E-02
   163 Pulay/Diag. 0.10E+00    0.7     1.05088206      -672.9797807159  8.54E-01
   164 Pulay/Diag. 0.10E+00    0.7     0.02463464      -673.8045795566 -8.25E-01
   165 Pulay/Diag. 0.10E+00    0.7     0.82629611      -673.8145822125 -1.00E-02
   166 Pulay/Diag. 0.10E+00    0.7     0.19224615      -673.7794464997  3.51E-02
   167 Pulay/Diag. 0.10E+00    0.7     0.73313018      -673.7736383745  5.81E-03
   168 Pulay/Diag. 0.10E+00    0.7     0.79529060      -672.9399572833  8.34E-01
   169 Pulay/Diag. 0.10E+00    0.6     0.79644511      -673.7934343640 -8.53E-01
   170 Pulay/Diag. 0.10E+00    0.7     0.04825892      -672.9205414020  8.73E-01
   171 Pulay/Diag. 0.10E+00    0.7     0.02480510      -673.0083108959 -8.78E-02
   172 Pulay/Diag. 0.10E+00    0.8     1.18931443      -672.9684978933  3.98E-02
   173 Pulay/Diag. 0.10E+00    0.7     1.18654662      -673.7991678636 -8.31E-01
   174 Pulay/Diag. 0.10E+00    0.7     1.12289255      -673.0244322838  7.75E-01
   175 Pulay/Diag. 0.10E+00    0.7     1.16802522      -673.7997829072 -7.75E-01
   176 Pulay/Diag. 0.10E+00    0.6     0.00439345      -672.9847465915  8.15E-01
   177 Pulay/Diag. 0.10E+00    0.5     0.59253758      -672.9876242359 -2.88E-03
   178 Pulay/Diag. 0.10E+00    0.5     0.59218255      -673.7889902630 -8.01E-01
   179 Pulay/Diag. 0.10E+00    0.5     0.00479147      -672.9729699868  8.16E-01
   180 Pulay/Diag. 0.10E+00    0.5     0.90354073      -672.9779929070 -5.02E-03
   181 Pulay/Diag. 0.10E+00    0.5     0.90406673      -673.7836344693 -8.06E-01
   182 Pulay/Diag. 0.10E+00    0.5     0.65886884      -672.9660792156  8.18E-01
   183 Pulay/Diag. 0.10E+00    0.5     0.65829732      -673.7869408742 -8.21E-01
   184 Pulay/Diag. 0.10E+00    0.7     0.00503797      -672.9651011354  8.22E-01
   185 Pulay/Diag. 0.10E+00    0.5     0.00127820      -672.9746741987 -9.57E-03
   186 Pulay/Diag. 0.10E+00    0.5     1.20453708      -672.9813457090 -6.67E-03
   187 Pulay/Diag. 0.10E+00    0.5     0.09357210      -673.7747188299 -7.93E-01
   188 Pulay/Diag. 0.10E+00    0.5     1.15039302      -673.7902112234 -1.55E-02
   189 Pulay/Diag. 0.10E+00    0.5     0.70754738      -672.9745935082  8.16E-01
   190 Pulay/Diag. 0.10E+00    0.5     0.06765821      -673.7925678793 -8.18E-01
   191 Pulay/Diag. 0.10E+00    0.5     1.24373500      -673.7847115078  7.86E-03
   192 Pulay/Diag. 0.10E+00    0.5     0.27760614      -673.7329226759  5.18E-02
   193 Pulay/Diag. 0.10E+00    0.5     0.03453273      -673.7953964263 -6.25E-02
   194 Pulay/Diag. 0.10E+00    0.5     1.01865240      -673.7901039714  5.29E-03
   195 Pulay/Diag. 0.10E+00    0.5     0.95346013      -673.7872990525  2.80E-03
   196 Pulay/Diag. 0.10E+00    0.5     0.66989279      -672.9811344756  8.06E-01
   197 Pulay/Diag. 0.10E+00    0.5     0.67011842      -673.7868956793 -8.06E-01
   198 Pulay/Diag. 0.10E+00    0.5     0.94620017      -672.9627957529  8.24E-01
   199 Pulay/Diag. 0.10E+00    0.5     0.58079067      -673.7877268916 -8.25E-01
   200 Pulay/Diag. 0.10E+00    0.5     1.07459446      -673.7864241952  1.30E-03
   201 Pulay/Diag. 0.10E+00    0.5     0.03671502      -673.0518925453  7.35E-01
   202 Pulay/Diag. 0.10E+00    0.5     0.61918657      -673.0160168370  3.59E-02
   203 Pulay/Diag. 0.10E+00    0.5     0.66251124      -673.7863285171 -7.70E-01
   204 Pulay/Diag. 0.10E+00    0.5     0.00218366      -672.9789608135  8.07E-01
   205 Pulay/Diag. 0.10E+00    0.5     0.01471770      -672.9773350197  1.63E-03
   206 Pulay/Diag. 0.10E+00    0.5     0.01699833      -672.9861553351 -8.82E-03
   207 Pulay/Diag. 0.10E+00    0.5     0.08369134      -672.9414188516  4.47E-02
   208 Pulay/Diag. 0.10E+00    0.5     0.69478643      -672.7982244701  1.43E-01
   209 Pulay/Diag. 0.10E+00    0.5     0.06675042      -673.7583571072 -9.60E-01
   210 Pulay/Diag. 0.10E+00    0.5     0.08231112      -673.7860669846 -2.77E-02
   211 Pulay/Diag. 0.10E+00    0.5     1.19035220      -673.7869973701 -9.30E-04
   212 Pulay/Diag. 0.10E+00    0.5     0.02116744      -673.7856522336  1.35E-03
   213 Pulay/Diag. 0.10E+00    0.5     0.00302032      -673.7909110816 -5.26E-03
   214 Pulay/Diag. 0.10E+00    0.7     0.61698516      -673.7871888158  3.72E-03
   215 Pulay/Diag. 0.10E+00    0.5     0.60781812      -672.9839333855  8.03E-01
   216 Pulay/Diag. 0.10E+00    0.5     0.60828207      -673.7893159301 -8.05E-01
   217 Pulay/Diag. 0.10E+00    0.5     0.57778093      -672.9616583199  8.28E-01
   218 Pulay/Diag. 0.10E+00    0.5     0.57773940      -673.7285272515 -7.67E-01
   219 Pulay/Diag. 0.10E+00    0.5     0.69383154      -672.9577510217  7.71E-01
   220 Pulay/Diag. 0.10E+00    0.5     0.08903556      -673.7416093097 -7.84E-01
   221 Pulay/Diag. 0.10E+00    0.5     0.01612507      -673.7946111660 -5.30E-02
   222 Pulay/Diag. 0.10E+00    0.5     0.60704368      -673.7911057264  3.51E-03
   223 Pulay/Diag. 0.10E+00    0.5     0.00308057      -672.9747279338  8.16E-01
   224 Pulay/Diag. 0.10E+00    0.5     0.00606082      -672.9758709124 -1.14E-03
   225 Pulay/Diag. 0.10E+00    0.5     0.00197944      -672.9795346108 -3.66E-03
   226 Pulay/Diag. 0.10E+00    0.5     0.10512302      -672.9629401894  1.66E-02
   227 Pulay/Diag. 0.10E+00    0.5     0.06983298      -672.9979749381 -3.50E-02
   228 Pulay/Diag. 0.10E+00    0.5     0.62176961      -672.9582885298  3.97E-02
   229 Pulay/Diag. 0.10E+00    0.5     0.03849678      -673.7725395924 -8.14E-01
   230 Pulay/Diag. 0.10E+00    0.5     1.21195974      -673.7876779099 -1.51E-02
   231 Pulay/Diag. 0.10E+00    0.5     0.03381468      -673.7739266758  1.38E-02
   232 Pulay/Diag. 0.10E+00    0.5     1.17625337      -673.7910769968 -1.72E-02
   233 Pulay/Diag. 0.10E+00    0.5     0.05569438      -673.7933436119 -2.27E-03
   234 Pulay/Diag. 0.10E+00    0.5     0.12140003      -673.7936779891 -3.34E-04
   235 Pulay/Diag. 0.10E+00    0.5     0.02406331      -673.7903972879  3.28E-03
   236 Pulay/Diag. 0.10E+00    0.5     5.61645664      -673.4548510029  3.36E-01
   237 Pulay/Diag. 0.10E+00    0.5     5.07587170      -675.3793698547 -1.92E+00
   238 Pulay/Diag. 0.10E+00    0.5     2.61167227      -672.7125423279  2.67E+00
   239 Pulay/Diag. 0.10E+00    0.5     0.52119937      -672.8836311221 -1.71E-01
   240 Pulay/Diag. 0.10E+00    0.5     0.76090442      -673.1985799288 -3.15E-01
   241 Pulay/Diag. 0.10E+00    0.5     0.11655812      -672.6759706687  5.23E-01
   242 Pulay/Diag. 0.10E+00    0.5     0.73383794      -672.9428194965 -2.67E-01
   243 Pulay/Diag. 0.10E+00    0.5     0.76563416      -673.7945175594 -8.52E-01
   244 Pulay/Diag. 0.10E+00    0.7     1.36449891      -672.9698062284  8.25E-01
   245 Pulay/Diag. 0.10E+00    0.5     1.31998629      -674.1461096723 -1.18E+00
   246 Pulay/Diag. 0.10E+00    0.5     0.46359617      -673.6763416665  4.70E-01
   247 Pulay/Diag. 0.10E+00    0.5     0.33314930      -673.6975618589 -2.12E-02
   248 Pulay/Diag. 0.10E+00    0.5     0.51134026      -673.7184525530 -2.09E-02
   249 Pulay/Diag. 0.10E+00    0.5     0.03948604      -672.8987210894  8.20E-01
   250 Pulay/Diag. 0.10E+00    0.5     0.02403289      -672.9827491409 -8.40E-02
   251 Pulay/Diag. 0.10E+00    0.5     0.00646099      -672.9817008131  1.05E-03
   252 Pulay/Diag. 0.10E+00    0.5     0.00207110      -672.9742762502  7.42E-03
   253 Pulay/Diag. 0.10E+00    0.5     1.39633459      -672.9432954604  3.10E-02
   254 Pulay/Diag. 0.10E+00    0.5     0.81216050      -674.0808922332 -1.14E+00
   255 Pulay/Diag. 0.10E+00    0.5     0.41186756      -673.7494429710  3.31E-01
   256 Pulay/Diag. 0.10E+00    0.5     0.72040019      -673.8076831238 -5.82E-02
   257 Pulay/Diag. 0.10E+00    0.5     0.91462449      -673.8295796434 -2.19E-02
   258 Pulay/Diag. 0.10E+00    0.5     0.10776955      -673.7674254831  6.22E-02
   259 Pulay/Diag. 0.10E+00    0.5     0.10095831      -673.7856985968 -1.83E-02
   260 Pulay/Diag. 0.10E+00    0.5     0.00882165      -673.7880836782 -2.39E-03
   261 Pulay/Diag. 0.10E+00    0.5     3.72740870      -673.5825485431  2.06E-01
   262 Pulay/Diag. 0.10E+00    0.5     3.17380805      -673.9971170940 -4.15E-01
   263 Pulay/Diag. 0.10E+00    0.5     3.43471886      -673.1838415817  8.13E-01
   264 Pulay/Diag. 0.10E+00    0.5     0.67661767      -672.7545522581  4.29E-01
   265 Pulay/Diag. 0.10E+00    0.5     0.08679125      -672.0270712862  7.27E-01
   266 Pulay/Diag. 0.10E+00    0.5     0.04898218      -672.4665692721 -4.39E-01
   267 Pulay/Diag. 0.10E+00    0.5     0.06664982      -672.6435094273 -1.77E-01
   268 Pulay/Diag. 0.10E+00    0.5     0.52183516      -672.7755098316 -1.32E-01
   269 Pulay/Diag. 0.10E+00    0.5     0.93067516      -673.6047814325 -8.29E-01
   270 Pulay/Diag. 0.10E+00    0.5     0.89512691      -674.2172207298 -6.12E-01
   271 Pulay/Diag. 0.10E+00    0.5     0.59660686      -673.8394360096  3.78E-01
   272 Pulay/Diag. 0.10E+00    0.5     0.03993739      -672.8654803511  9.74E-01
   273 Pulay/Diag. 0.10E+00    0.5     0.62338616      -672.9304480775 -6.50E-02
   274 Pulay/Diag. 0.10E+00    0.7     0.01045106      -673.7779626200 -8.48E-01
   275 Pulay/Diag. 0.10E+00    0.5     0.61182879      -673.7842158156 -6.25E-03
   276 Pulay/Diag. 0.10E+00    0.5     0.61093614      -672.9740692826  8.10E-01
   277 Pulay/Diag. 0.10E+00    0.6     0.07583140      -673.7804738141 -8.06E-01
   278 Pulay/Diag. 0.10E+00    0.8     0.14920722      -673.7814998545 -1.03E-03
   279 Pulay/Diag. 0.10E+00    0.6     1.27151559      -673.7942989863 -1.28E-02
   280 Pulay/Diag. 0.10E+00    0.6     0.10930322      -673.8506787989 -5.64E-02
   281 Pulay/Diag. 0.10E+00    0.8     1.18323749      -673.8006309882  5.00E-02
   282 Pulay/Diag. 0.10E+00    0.8     0.74516942      -673.7807060384  1.99E-02
   283 Pulay/Diag. 0.10E+00    0.7     0.60081663      -672.9683898118  8.12E-01
   284 Pulay/Diag. 0.10E+00    0.8     0.04399097      -673.8024481069 -8.34E-01
   285 Pulay/Diag. 0.10E+00    0.7     0.00167698      -673.7977394934  4.71E-03
   286 Pulay/Diag. 0.10E+00    0.7     0.01704036      -673.7968836676  8.56E-04
   287 Pulay/Diag. 0.10E+00    0.7     0.04514428      -673.7967419380  1.42E-04
   288 Pulay/Diag. 0.10E+00    0.9     0.23298995      -673.7991085827 -2.37E-03
   289 Pulay/Diag. 0.10E+00    0.8     1.07448472      -673.8126511431 -1.35E-02
   290 Pulay/Diag. 0.10E+00    0.7     1.11350945      -673.8125149064  1.36E-04
   291 Pulay/Diag. 0.10E+00    0.8     3.64053810      -673.5721973777  2.40E-01
   292 Pulay/Diag. 0.10E+00    0.8     0.13903341      -674.7316920690 -1.16E+00
   293 Pulay/Diag. 0.10E+00    0.7     0.15211835      -674.7289142354  2.78E-03
   294 Pulay/Diag. 0.10E+00    0.8     3.02587025      -674.4238755701  3.05E-01
   295 Pulay/Diag. 0.10E+00    0.8     2.65879773      -672.6630074584  1.76E+00
   296 Pulay/Diag. 0.10E+00    0.8     0.14117367      -672.1713095843  4.92E-01
   297 Pulay/Diag. 0.10E+00    0.7     0.06322209      -672.7559502506 -5.85E-01
   298 Pulay/Diag. 0.10E+00    0.7     0.82398138      -672.8873516627 -1.31E-01
   299 Pulay/Diag. 0.10E+00    0.8     1.02672937      -673.7341030595 -8.47E-01
   300 Pulay/Diag. 0.10E+00    0.8     0.53215215      -673.7398856766 -5.78E-03
   301 Pulay/Diag. 0.10E+00    0.7     0.71892500      -672.8188451716  9.21E-01
   302 Pulay/Diag. 0.10E+00    0.7     0.71770367      -673.6757391447 -8.57E-01
   303 Pulay/Diag. 0.10E+00    0.7     0.04266294      -672.7914343383  8.84E-01
   304 Pulay/Diag. 0.10E+00    0.8     0.06824143      -672.8748240398 -8.34E-02
   305 Pulay/Diag. 0.10E+00    0.7     0.76126035      -672.9935333108 -1.19E-01
   306 Pulay/Diag. 0.10E+00    0.9     0.04491994      -673.8124630227 -8.19E-01
   307 Pulay/Diag. 0.10E+00    0.8     0.96511550      -673.7408665602  7.16E-02
   308 Pulay/Diag. 0.10E+00    0.7     1.23740841      -674.2857285230 -5.45E-01
   309 Pulay/Diag. 0.10E+00    0.7     0.71214532      -673.8196013088  4.66E-01
   310 Pulay/Diag. 0.10E+00    0.9     0.81355805      -673.7965176601  2.31E-02
   311 Pulay/Diag. 0.10E+00    0.8     0.02209661      -672.9496468995  8.47E-01
   312 Pulay/Diag. 0.10E+00    0.5     0.00326919      -672.9923478264 -4.27E-02
   313 Pulay/Diag. 0.10E+00    0.5     0.00642680      -672.9928847634 -5.37E-04
   314 Pulay/Diag. 0.10E+00    0.5     0.92771692      -673.0040732680 -1.12E-02
   315 Pulay/Diag. 0.10E+00    0.5     0.62859162      -673.7868685081 -7.83E-01
   316 Pulay/Diag. 0.10E+00    0.8     0.94217098      -673.7851250482  1.74E-03
   317 Pulay/Diag. 0.10E+00    0.7     0.17484986      -673.7692169113  1.59E-02
   318 Pulay/Diag. 0.10E+00    0.7     0.48812000      -673.7794504452 -1.02E-02
   319 Pulay/Diag. 0.10E+00    0.8     0.11490872      -673.7687249998  1.07E-02
   320 Pulay/Diag. 0.10E+00    0.7     0.15153610      -673.7705542206 -1.83E-03
   321 Pulay/Diag. 0.10E+00    0.7     0.64000419      -673.7719241168 -1.37E-03
   322 Pulay/Diag. 0.10E+00    0.8     0.61908708      -672.9637867420  8.08E-01
   323 Pulay/Diag. 0.10E+00    0.9     0.02502534      -673.8063369595 -8.43E-01
   324 Pulay/Diag. 0.10E+00    0.7     0.08481791      -673.8060777974  2.59E-04
   325 Pulay/Diag. 0.10E+00    0.7     1.19155350      -673.8122389726 -6.16E-03
   326 Pulay/Diag. 0.10E+00    0.7     1.20631389      -673.8001789313  1.21E-02
   327 Pulay/Diag. 0.10E+00    0.7     0.01988179      -673.8045447480 -4.37E-03
   328 Pulay/Diag. 0.10E+00    0.7     0.00281395      -673.8047649720 -2.20E-04
   329 Pulay/Diag. 0.10E+00    0.7     0.03707356      -673.8055181408 -7.53E-04
   330 Pulay/Diag. 0.10E+00    0.7     3.62319176      -673.5948325444  2.11E-01
   331 Pulay/Diag. 0.10E+00    0.8     1.79630713      -674.6723901326 -1.08E+00
   332 Pulay/Diag. 0.10E+00    0.6     2.36280326      -674.1654269214  5.07E-01
   333 Pulay/Diag. 0.10E+00    0.7     1.10695862      -672.6204226779  1.55E+00
   334 Pulay/Diag. 0.10E+00    0.7     0.61308980      -672.3950186104  2.25E-01
   335 Pulay/Diag. 0.10E+00    0.7     0.59066944      -673.7926270350 -1.40E+00
   336 Pulay/Diag. 0.10E+00    0.6     0.03802414      -672.7331135716  1.06E+00
   337 Pulay/Diag. 0.10E+00    0.7     0.51442750      -672.7388480481 -5.73E-03
   338 Pulay/Diag. 0.10E+00    0.7     1.06070270      -673.7947264329 -1.06E+00
   339 Pulay/Diag. 0.10E+00    0.7     1.39332557      -674.2285180169 -4.34E-01
   340 Pulay/Diag. 0.10E+00    0.7     0.49165755      -673.7393021940  4.89E-01
   341 Pulay/Diag. 0.10E+00    0.7     0.02949904      -672.9116915312  8.28E-01
   342 Pulay/Diag. 0.10E+00    0.8     0.03823722      -672.8845504429  2.71E-02
   343 Pulay/Diag. 0.10E+00    0.7     0.04177050      -672.9334180918 -4.89E-02
   344 Pulay/Diag. 0.10E+00    0.8     0.00837144      -672.9814915092 -4.81E-02
   345 Pulay/Diag. 0.10E+00    0.8     0.68893905      -672.9669454768  1.45E-02
   346 Pulay/Diag. 0.10E+00    0.7     0.17557532      -673.7670377182 -8.00E-01
   347 Pulay/Diag. 0.10E+00    0.7     0.81537521      -673.7357832451  3.13E-02
   348 Pulay/Diag. 0.10E+00    0.7     1.24621049      -674.1481103083 -4.12E-01
   349 Pulay/Diag. 0.10E+00    0.7     0.72277246      -673.8084140382  3.40E-01
   350 Pulay/Diag. 0.10E+00    0.9     0.17918142      -673.8356935618 -2.73E-02
   351 Pulay/Diag. 0.10E+00    0.7     0.01998013      -673.8247191704  1.10E-02
   352 Pulay/Diag. 0.10E+00    0.7     0.03316367      -673.8390033551 -1.43E-02
   353 Pulay/Diag. 0.10E+00    0.8     3.69639207      -673.5606779502  2.78E-01
   354 Pulay/Diag. 0.10E+00    0.7     3.68739922      -674.2667101789 -7.06E-01
   355 Pulay/Diag. 0.10E+00    0.8     0.14867523      -671.9479532135  2.32E+00
   356 Pulay/Diag. 0.10E+00    0.7     0.84887256      -672.7342644836 -7.86E-01
   357 Pulay/Diag. 0.10E+00    0.6     0.48266871      -673.5837745264 -8.50E-01
   358 Pulay/Diag. 0.10E+00    0.7     0.62032413      -673.6359166056 -5.21E-02
   359 Pulay/Diag. 0.10E+00    0.7     0.03668778      -672.7655645051  8.70E-01
   360 Pulay/Diag. 0.10E+00    0.7     0.02830098      -672.8246460804 -5.91E-02
   361 Pulay/Diag. 0.10E+00    0.7     0.86602270      -672.8557268519 -3.11E-02
   362 Pulay/Diag. 0.10E+00    0.8     1.18074445      -673.6667992283 -8.11E-01
   363 Pulay/Diag. 0.10E+00    0.7     0.74701305      -673.7823725394 -1.16E-01
   364 Pulay/Diag. 0.10E+00    0.8     1.19020502      -672.8854158859  8.97E-01
   365 Pulay/Diag. 0.10E+00    0.6     0.00336769      -673.7764871237 -8.91E-01
   366 Pulay/Diag. 0.10E+00    0.7     1.18803218      -673.7794364290 -2.95E-03
   367 Pulay/Diag. 0.10E+00    0.7     1.15367327      -672.9442370883  8.35E-01
   368 Pulay/Diag. 0.10E+00    0.7     0.88789622      -673.7800174697 -8.36E-01
   369 Pulay/Diag. 0.10E+00    0.7     0.32326320      -673.7895740225 -9.56E-03
   370 Pulay/Diag. 0.10E+00    0.8     0.68544244      -673.7916010591 -2.03E-03
   371 Pulay/Diag. 0.10E+00    0.7     0.71618789      -673.7856313483  5.97E-03
   372 Pulay/Diag. 0.10E+00    0.7     1.05558584      -673.8046072435 -1.90E-02
   373 Pulay/Diag. 0.10E+00    0.7     0.94666635      -673.8334767481 -2.89E-02
   374 Pulay/Diag. 0.10E+00    0.7     0.18348603      -673.8101956546  2.33E-02
   375 Pulay/Diag. 0.10E+00    0.8     5.60916024      -673.4496940153  3.61E-01
   376 Pulay/Diag. 0.10E+00    0.8     5.56133119      -675.7854386976 -2.34E+00
   377 Pulay/Diag. 0.10E+00    0.7     0.63217653      -673.5542425848  2.23E+00
   378 Pulay/Diag. 0.10E+00    0.8     1.73335437      -673.8475055469 -2.93E-01
   379 Pulay/Diag. 0.10E+00    0.7     2.68974820      -673.5707825480  2.77E-01
   380 Pulay/Diag. 0.10E+00    0.7     0.75554121      -673.1243544529  4.46E-01
   381 Pulay/Diag. 0.10E+00    0.7     0.73282027      -672.8153190512  3.09E-01
   382 Pulay/Diag. 0.10E+00    0.7     0.70347360      -673.8586537071 -1.04E+00
   383 Pulay/Diag. 0.10E+00    0.7     1.35631340      -672.8737531517  9.85E-01
   384 Pulay/Diag. 0.10E+00    0.5     1.32878105      -674.2586689108 -1.38E+00
   385 Pulay/Diag. 0.10E+00    0.5     0.30831410      -673.6424418547  6.16E-01
   386 Pulay/Diag. 0.10E+00    0.5     0.69539037      -673.5341401744  1.08E-01
   387 Pulay/Diag. 0.10E+00    0.5     0.50260486      -673.5714662277 -3.73E-02
   388 Pulay/Diag. 0.10E+00    0.5     0.17515289      -672.9159743453  6.55E-01
   389 Pulay/Diag. 0.10E+00    0.5     0.05339126      -672.7989906530  1.17E-01
   390 Pulay/Diag. 0.10E+00    0.5     0.04871434      -672.8845746971 -8.56E-02
   391 Pulay/Diag. 0.10E+00    0.5     0.03859247      -672.9638108771 -7.92E-02
   392 Pulay/Diag. 0.10E+00    0.5     0.08020692      -673.0409045870 -7.71E-02
   393 Pulay/Diag. 0.10E+00    0.5     0.75066858      -672.8966134603  1.44E-01
   394 Pulay/Diag. 0.10E+00    0.5     0.76839796      -673.7626931818 -8.66E-01
   395 Pulay/Diag. 0.10E+00    0.5     1.30572756      -672.9946988041  7.68E-01
   396 Pulay/Diag. 0.10E+00    0.5     1.13649903      -674.3486343533 -1.35E+00
   397 Pulay/Diag. 0.10E+00    0.5     0.54757647      -673.8213389228  5.27E-01
   398 Pulay/Diag. 0.10E+00    0.5     1.12356492      -673.0190351019  8.02E-01
   399 Pulay/Diag. 0.10E+00    0.5     1.12134490      -673.7777779641 -7.59E-01
   400 Pulay/Diag. 0.10E+00    0.5     0.68082177      -672.9679196724  8.10E-01
   401 Pulay/Diag. 0.10E+00    0.5     0.86754600      -673.7916098034 -8.24E-01
   402 Pulay/Diag. 0.10E+00    0.5     0.01374255      -673.7836171130  7.99E-03
   403 Pulay/Diag. 0.10E+00    0.5     0.83115742      -673.7846273724 -1.01E-03
   404 Pulay/Diag. 0.10E+00    0.5     1.16707938      -673.7923830698 -7.76E-03
   405 Pulay/Diag. 0.10E+00    0.5     0.77992222      -673.7557133052  3.67E-02
   406 Pulay/Diag. 0.10E+00    0.5     0.02397870      -672.8855346696  8.70E-01
   407 Pulay/Diag. 0.10E+00    0.8     0.59124091      -672.9613888944 -7.59E-02
   408 Pulay/Diag. 0.10E+00    0.5     0.07330795      -673.8110536525 -8.50E-01
   409 Pulay/Diag. 0.10E+00    0.5     0.03702304      -673.7985531150  1.25E-02
   410 Pulay/Diag. 0.10E+00    0.5     0.12684608      -673.7994347777 -8.82E-04
   411 Pulay/Diag. 0.10E+00    0.5     0.06927852      -673.7966177220  2.82E-03
   412 Pulay/Diag. 0.10E+00    0.5     1.18519855      -673.8284730444 -3.19E-02
   413 Pulay/Diag. 0.10E+00    0.5     1.16766434      -673.8480116445 -1.95E-02
   414 Pulay/Diag. 0.10E+00    0.5     1.13363847      -673.8026307481  4.54E-02
   415 Pulay/Diag. 0.10E+00    0.5     3.67295503      -673.5538864798  2.49E-01
   416 Pulay/Diag. 0.10E+00    0.5     0.37760405      -674.5992982242 -1.05E+00
   417 Pulay/Diag. 0.10E+00    0.5     1.62428452      -674.5386584730  6.06E-02
   418 Pulay/Diag. 0.10E+00    0.5     2.62760130      -673.7772741789  7.61E-01
   419 Pulay/Diag. 0.10E+00    0.5     0.95897947      -672.7738178083  1.00E+00
   420 Pulay/Diag. 0.10E+00    0.5     0.10577706      -672.5490878386  2.25E-01
   421 Pulay/Diag. 0.10E+00    0.5     0.05858707      -672.8902210296 -3.41E-01
   422 Pulay/Diag. 0.10E+00    0.5     0.93836063      -672.8150097294  7.52E-02
   423 Pulay/Diag. 0.10E+00    0.5     0.90780481      -673.7632424747 -9.48E-01
   424 Pulay/Diag. 0.10E+00    0.5     1.33796866      -674.2314012444 -4.68E-01
   425 Pulay/Diag. 0.10E+00    0.5     0.47123431      -673.6661814305  5.65E-01
   426 Pulay/Diag. 0.10E+00    0.5     0.52761503      -673.7070073346 -4.08E-02
   427 Pulay/Diag. 0.10E+00    0.5     0.03739661      -672.8590852414  8.48E-01
   428 Pulay/Diag. 0.10E+00    0.5     0.03886383      -672.9113709015 -5.23E-02
   429 Pulay/Diag. 0.10E+00    0.5     0.02900735      -672.9828288506 -7.15E-02
   430 Pulay/Diag. 0.10E+00    0.5     0.00436723      -672.9994177330 -1.66E-02
   431 Pulay/Diag. 0.10E+00    0.5     1.29071930      -672.9894912029  9.93E-03
   432 Pulay/Diag. 0.10E+00    0.5     1.35678142      -673.6985816285 -7.09E-01
   433 Pulay/Diag. 0.10E+00    0.5     1.38426865      -674.1389394223 -4.40E-01
   434 Pulay/Diag. 0.10E+00    0.5     0.47998942      -673.7915980858  3.47E-01
   435 Pulay/Diag. 0.10E+00    0.5     0.13849768      -673.8266037428 -3.50E-02
   436 Pulay/Diag. 0.10E+00    0.5     0.05938002      -673.8187452904  7.86E-03
   437 Pulay/Diag. 0.10E+00    0.8     0.16611827      -673.8253683824 -6.62E-03
   438 Pulay/Diag. 0.10E+00    0.5     0.02105558      -673.7881561757  3.72E-02
   439 Pulay/Diag. 0.10E+00    0.5     1.28487842      -673.7254996618  6.27E-02
   440 Pulay/Diag. 0.10E+00    0.5     1.21473002      -673.2722806136  4.53E-01
   441 Pulay/Diag. 0.10E+00    0.5     0.84331271      -672.6828605134  5.89E-01
   442 Pulay/Diag. 0.10E+00    0.5     0.88260352      -673.1334303201 -4.51E-01
   443 Pulay/Diag. 0.10E+00    0.5     1.01369171      -673.1332478456  1.82E-04
   444 Pulay/Diag. 0.10E+00    0.5     0.07726759      -672.3375170838  7.96E-01
   445 Pulay/Diag. 0.10E+00    0.5     0.03563407      -672.6583199191 -3.21E-01
   446 Pulay/Diag. 0.10E+00    0.5     0.71890128      -672.7769411868 -1.19E-01
   447 Pulay/Diag. 0.10E+00    0.5     1.00403229      -673.7471309188 -9.70E-01
   448 Pulay/Diag. 0.10E+00    0.5     1.20107574      -674.2145404552 -4.67E-01
   449 Pulay/Diag. 0.10E+00    0.5     0.61948745      -673.8417608978  3.73E-01
   450 Pulay/Diag. 0.10E+00    0.5     0.78447120      -673.8237224017  1.80E-02
   451 Pulay/Diag. 0.10E+00    0.5     1.04911099      -673.0156519873  8.08E-01
   452 Pulay/Diag. 0.10E+00    0.5     1.05218657      -673.7952294902 -7.80E-01
   453 Pulay/Diag. 0.10E+00    0.5     0.02475878      -672.9773457991  8.18E-01
   454 Pulay/Diag. 0.10E+00    0.5     0.03233387      -672.9982132632 -2.09E-02
   455 Pulay/Diag. 0.10E+00    0.5     1.07089136      -672.9462330445  5.20E-02
   456 Pulay/Diag. 0.10E+00    0.5     1.06824308      -673.8007365403 -8.55E-01
   457 Pulay/Diag. 0.10E+00    0.5     0.02468584      -672.9345504680  8.66E-01
   458 Pulay/Diag. 0.10E+00    0.5     1.22502962      -672.9507243022 -1.62E-02
   459 Pulay/Diag. 0.10E+00    0.5     0.02328155      -673.7776017304 -8.27E-01
   460 Pulay/Diag. 0.10E+00    0.5     1.16968926      -673.7559416052  2.17E-02
   461 Pulay/Diag. 0.10E+00    0.5     0.23449807      -673.7146455265  4.13E-02
   462 Pulay/Diag. 0.10E+00    0.5     0.91558160      -673.8042920766 -8.96E-02
   463 Pulay/Diag. 0.10E+00    0.5     0.17732380      -673.7973040558  6.99E-03
   464 Pulay/Diag. 0.10E+00    0.5     0.04118509      -673.7898478284  7.46E-03
   465 Pulay/Diag. 0.10E+00    0.5     0.23070043      -673.7842218501  5.63E-03
   466 Pulay/Diag. 0.10E+00    0.6     5.26901984      -673.3634910556  4.21E-01
   467 Pulay/Diag. 0.10E+00    0.7     4.96692020      -675.2419809684 -1.88E+00
   468 Pulay/Diag. 0.10E+00    0.5     1.79829319      -673.0012483352  2.24E+00
   469 Pulay/Diag. 0.10E+00    0.5     2.65139375      -673.9929182942 -9.92E-01
   470 Pulay/Diag. 0.10E+00    0.5     2.75859259      -673.1225801121  8.70E-01
   471 Pulay/Diag. 0.10E+00    0.5     1.96756634      -675.0972126103 -1.97E+00
   472 Pulay/Diag. 0.10E+00    0.5     1.69875315      -675.0292969012  6.79E-02
   473 Pulay/Diag. 0.10E+00    0.5     3.44063590      -674.5524002418  4.77E-01
   474 Pulay/Diag. 0.10E+00    0.5     3.56172086      -673.1065698651  1.45E+00
   475 Pulay/Diag. 0.10E+00    0.5     3.51868691      -675.7886663101 -2.68E+00
   476 Pulay/Diag. 0.10E+00    0.5     0.93694029      -673.3027468376  2.49E+00
   477 Pulay/Diag. 0.10E+00    0.5     0.98723267      -673.4309748279 -1.28E-01
   478 Pulay/Diag. 0.10E+00    0.5     1.64132186      -673.2785257769  1.52E-01
   479 Pulay/Diag. 0.10E+00    0.5     1.52471983      -674.1369343126 -8.58E-01
   480 Pulay/Diag. 0.10E+00    0.5     0.03036316      -673.4929591330  6.44E-01
   481 Pulay/Diag. 0.10E+00    0.5     0.80099879      -673.6328230728 -1.40E-01
   482 Pulay/Diag. 0.10E+00    0.5     0.06321696      -672.9214148300  7.11E-01
   483 Pulay/Diag. 0.10E+00    0.5     0.04156320      -672.8557841621  6.56E-02
   484 Pulay/Diag. 0.10E+00    0.5     0.04669872      -672.8959793969 -4.02E-02
   485 Pulay/Diag. 0.10E+00    0.5     0.02278729      -672.9312216442 -3.52E-02
   486 Pulay/Diag. 0.10E+00    0.5     0.00639872      -672.9233311428  7.89E-03
   487 Pulay/Diag. 0.10E+00    0.5     3.02621203      -672.9717726432 -4.84E-02
   488 Pulay/Diag. 0.10E+00    0.5     2.99053822      -674.6805220553 -1.71E+00
   489 Pulay/Diag. 0.10E+00    0.5     0.10965614      -673.1344297183  1.55E+00
   490 Pulay/Diag. 0.10E+00    0.5     0.68000162      -672.9468739610  1.88E-01
   491 Pulay/Diag. 0.10E+00    0.5     1.05866477      -673.8134164613 -8.67E-01
   492 Pulay/Diag. 0.10E+00    0.5     0.05597170      -673.8147413502 -1.32E-03
   493 Pulay/Diag. 0.10E+00    0.5     0.43174351      -673.8105213155  4.22E-03
   494 Pulay/Diag. 0.10E+00    0.5     0.04591513      -673.8041249139  6.40E-03
   495 Pulay/Diag. 0.10E+00    0.5     0.22728359      -673.8019751691  2.15E-03
   496 Pulay/Diag. 0.10E+00    0.6     0.69866718      -673.8451955629 -4.32E-02
   497 Pulay/Diag. 0.10E+00    0.6     0.05437602      -673.8598400858 -1.46E-02
   498 Pulay/Diag. 0.10E+00    0.5     8.15751406      -673.4758033373  3.84E-01
   499 Pulay/Diag. 0.10E+00    0.5     8.16351997      -674.2334140854 -7.58E-01
   500 Pulay/Diag. 0.10E+00    0.5     0.92725349      -672.1963824475  2.04E+00

  Leaving inner SCF loop after reaching   500 steps.


  Electronic density on regular grids:       -143.9999999976        0.0000000024
  Core density on regular grids:              143.9999999999       -0.0000000001
  Total charge density on r-space grids:        0.0000000023
  Total charge density g-space grids:           0.0000000023

  Overlap energy of the core charge distribution:               0.00000004275251
  Self energy of the core charge distribution:               -977.15629455119449
  Core Hamiltonian energy:                                    298.56109456095720
  Hartree energy:                                             108.33916481635748
  Exchange-correlation energy:                               -101.85689791151880
  Dispersion energy:                                           -0.08344940488132

  Total energy:                                              -672.19638244752741

 *** WARNING in qs_scf.F:542 :: SCF run NOT converged ***


 ENERGY| Total FORCE_EVAL ( QS ) energy (a.u.):             -671.926232620160590


 --------  Informations at step =     0 ------------
  Optimization Method        =                 BFGS
  Total Energy               =      -671.9262326202
  Internal Pressure [bar]    =    116501.2095735720
  Used time                  =              285.272
 ---------------------------------------------------

 --------------------------
 OPTIMIZATION STEP:      1
 --------------------------

 CELL| Volume [angstrom^3]:                                              383.484
 CELL| Vector a [angstrom]:       3.328     0.000     0.000    |a| =       3.328
 CELL| Vector b [angstrom]:      -1.663     2.880     0.000    |b| =       3.326
 CELL| Vector c [angstrom]:       0.000     0.000    40.000    |c| =      40.000
 CELL| Angle (b,c), alpha [degree]:                                       90.000
 CELL| Angle (a,c), beta  [degree]:                                       90.000
 CELL| Angle (a,b), gamma [degree]:                                      120.000
 CELL| Numerically orthorhombic:                                              NO

 Number of electrons:                                                        144
 Number of occupied orbitals:                                                 72
 Number of molecular orbitals:                                               304

 Number of orbital functions:                                                304
 Number of independent orbital functions:                                    304

 Extrapolation method: ASPC


 SCF WAVEFUNCTION OPTIMIZATION

  Step     Update method      Time    Convergence         Total energy    Change
  ------------------------------------------------------------------------------
     1 NoMix/Diag. 0.10E+00    0.3    42.80240554      -672.2444450644 -6.72E+02
     2 Pulay/Diag. 0.10E+00    0.5    42.62638373      -689.1485893381 -1.69E+01
     3 Pulay/Diag. 0.10E+00    0.5    28.21840167      -663.2563665830  2.59E+01
     4 Pulay/Diag. 0.10E+00    0.5    21.15121279      -680.6911600173 -1.74E+01
     5 Pulay/Diag. 0.10E+00    0.5     5.28294944      -666.1885122948  1.45E+01
     6 Pulay/Diag. 0.10E+00    0.5    10.35024764      -657.2615262964  8.93E+00
     7 Pulay/Diag. 0.10E+00    0.5    10.34689055      -655.4274044438  1.83E+00
     8 Pulay/Diag. 0.10E+00    0.5     3.18919441      -656.1069238342 -6.80E-01
     9 Pulay/Diag. 0.10E+00    0.5     8.02460233      -659.0035749119 -2.90E+00
    10 Pulay/Diag. 0.10E+00    0.5    35.21524044      -668.4415094018 -9.44E+00
    11 Pulay/Diag. 0.10E+00    0.5    35.15110106      -686.5994058244 -1.82E+01
    12 Pulay/Diag. 0.10E+00    0.5     2.33273289      -660.2051070431  2.64E+01
    13 Pulay/Diag. 0.10E+00    0.5     1.63619503      -661.1500270675 -9.45E-01
    14 Pulay/Diag. 0.10E+00    0.5     3.62252632      -662.5213634328 -1.37E+00
    15 Pulay/Diag. 0.10E+00    0.5     2.35073827      -662.4689634346  5.24E-02
    16 Pulay/Diag. 0.10E+00    0.5     4.00848620      -664.2133894620 -1.74E+00
    17 Pulay/Diag. 0.10E+00    0.5     3.02381614      -661.0166779698  3.20E+00
    18 Pulay/Diag. 0.10E+00    0.5     9.18582151      -665.3198643259 -4.30E+00
    19 Pulay/Diag. 0.10E+00    0.5    13.49644834      -673.1936326893 -7.87E+00
    20 Pulay/Diag. 0.10E+00    0.5    13.06620552      -697.0341093246 -2.38E+01
    21 Pulay/Diag. 0.10E+00    0.5     2.94794421      -666.7406032741  3.03E+01
    22 Pulay/Diag. 0.10E+00    0.7     1.60095885      -665.1323518229  1.61E+00
    23 Pulay/Diag. 0.10E+00    0.5     2.26855461      -664.7056434593  4.27E-01
    24 Pulay/Diag. 0.10E+00    0.5     0.34423974      -663.8038924281  9.02E-01
    25 Pulay/Diag. 0.10E+00    0.5     0.19598695      -664.3600067953 -5.56E-01
    26 Pulay/Diag. 0.10E+00    0.5     1.19403827      -664.7242052361 -3.64E-01
    27 Pulay/Diag. 0.10E+00    0.5     8.85569529      -667.2613505793 -2.54E+00
    28 Pulay/Diag. 0.10E+00    0.5     9.79109516      -675.5615572710 -8.30E+00
    29 Pulay/Diag. 0.10E+00    0.5     9.69529400      -675.2177940790  3.44E-01
    30 Pulay/Diag. 0.10E+00    0.5     3.12193078      -669.1848441613  6.03E+00
    31 Pulay/Diag. 0.10E+00    0.5     2.11075683      -671.9885107734 -2.80E+00
    32 Pulay/Diag. 0.10E+00    0.5     2.09895667      -671.0107086662  9.78E-01
    33 Pulay/Diag. 0.10E+00    0.5     2.37605391      -672.1306879665 -1.12E+00
    34 Pulay/Diag. 0.10E+00    0.5     0.10928438      -673.5802965452 -1.45E+00
    35 Pulay/Diag. 0.10E+00    0.5     0.45783670      -673.5568995479  2.34E-02
    36 Pulay/Diag. 0.10E+00    0.5    11.05146203      -675.2357952824 -1.68E+00
    37 Pulay/Diag. 0.10E+00    0.5    11.05351715      -677.0725150457 -1.84E+00
    38 Pulay/Diag. 0.10E+00    0.5     3.22312967      -672.9974324896  4.08E+00
    39 Pulay/Diag. 0.10E+00    0.5     3.12001370      -669.9314352750  3.07E+00
    40 Pulay/Diag. 0.10E+00    0.5     2.13649135      -669.8333384132  9.81E-02
    41 Pulay/Diag. 0.10E+00    0.5     3.70144752      -671.6870944668 -1.85E+00
    42 Pulay/Diag. 0.10E+00    0.5     2.81913720      -671.8664684753 -1.79E-01
    43 Pulay/Diag. 0.10E+00    0.5     2.79320476      -671.8455165993  2.10E-02
    44 Pulay/Diag. 0.10E+00    0.5     9.23491049      -672.8830729525 -1.04E+00
    45 Pulay/Diag. 0.10E+00    0.5     9.24299107      -674.3636183993 -1.48E+00
    46 Pulay/Diag. 0.10E+00    0.5    11.01377392      -672.1706624560  2.19E+00
    47 Pulay/Diag. 0.10E+00    0.5     9.56651199      -702.3572650892 -3.02E+01
    48 Pulay/Diag. 0.10E+00    0.5     9.56035070      -672.0673282724  3.03E+01
    49 Pulay/Diag. 0.10E+00    0.5     6.80436101      -671.6343085243  4.33E-01
    50 Pulay/Diag. 0.10E+00    0.5     2.98630845      -669.9443815359  1.69E+00
    51 Pulay/Diag. 0.10E+00    0.5     1.86195532      -670.0606155989 -1.16E-01
    52 Pulay/Diag. 0.10E+00    0.5     1.35236932      -670.1909367828 -1.30E-01
    53 Pulay/Diag. 0.10E+00    0.6     1.18600418      -670.4613196261 -2.70E-01
    54 Pulay/Diag. 0.10E+00    0.6     2.71327556      -669.8273415715  6.34E-01
    55 Pulay/Diag. 0.10E+00    0.5     7.07712560      -671.9658348491 -2.14E+00
    56 Pulay/Diag. 0.10E+00    0.5     7.07682639      -674.0017528244 -2.04E+00
    57 Pulay/Diag. 0.10E+00    0.5     9.24576796      -674.3416412247 -3.40E-01
    58 Pulay/Diag. 0.10E+00    0.5     9.24575766      -673.7049889529  6.37E-01
    59 Pulay/Diag. 0.10E+00    0.5     7.52254210      -674.1530052890 -4.48E-01
    60 Pulay/Diag. 0.10E+00    0.5     7.51755996      -674.9770498225 -8.24E-01
    61 Pulay/Diag. 0.10E+00    0.5     1.49177516      -674.0574371636  9.20E-01
    62 Pulay/Diag. 0.10E+00    0.5     1.50829904      -673.4134501696  6.44E-01
    63 Pulay/Diag. 0.10E+00    0.5     3.23212999      -672.9254482214  4.88E-01
    64 Pulay/Diag. 0.10E+00    0.5     2.88778143      -669.6603576341  3.27E+00
    65 Pulay/Diag. 0.10E+00    0.5     1.33903125      -671.1129820948 -1.45E+00
    66 Pulay/Diag. 0.10E+00    0.5     8.74753280      -672.0925357594 -9.80E-01
    67 Pulay/Diag. 0.10E+00    0.5     8.74752156      -674.3746759279 -2.28E+00
    68 Pulay/Diag. 0.10E+00    0.5     0.27017549      -672.0650804722  2.31E+00
    69 Pulay/Diag. 0.10E+00    0.5     8.34104311      -672.3309484672 -2.66E-01
    70 Pulay/Diag. 0.10E+00    0.5     8.34153011      -673.8326100696 -1.50E+00
    71 Pulay/Diag. 0.10E+00    0.5     9.56401449      -670.8801053237  2.95E+00
    72 Pulay/Diag. 0.10E+00    0.5     9.55580047      -688.6750065409 -1.78E+01
    73 Pulay/Diag. 0.10E+00    0.5     3.10374870      -673.5030115455  1.52E+01
    74 Pulay/Diag. 0.10E+00    0.5     0.90577284      -670.9810895135  2.52E+00
    75 Pulay/Diag. 0.10E+00    0.5     2.21073526      -671.1111869634 -1.30E-01
    76 Pulay/Diag. 0.10E+00    0.5     0.21665977      -672.0663652346 -9.55E-01
    77 Pulay/Diag. 0.10E+00    0.5     3.62468164      -672.4439479265 -3.78E-01
    78 Pulay/Diag. 0.10E+00    0.5     3.64307375      -672.5349067315 -9.10E-02
    79 Pulay/Diag. 0.10E+00    0.5     3.03263344      -672.1364856160  3.98E-01
    80 Pulay/Diag. 0.10E+00    0.5     3.11203221      -671.0629852844  1.07E+00
    81 Pulay/Diag. 0.10E+00    0.5     1.12481988      -675.3116755117 -4.25E+00
    82 Pulay/Diag. 0.10E+00    0.5     2.43429987      -674.5885279659  7.23E-01
    83 Pulay/Diag. 0.10E+00    0.5     2.06041031      -672.7641711414  1.82E+00
    84 Pulay/Diag. 0.10E+00    0.5     0.84431499      -671.9017910898  8.62E-01
    85 Pulay/Diag. 0.10E+00    0.7     2.03462204      -671.9348394787 -3.30E-02
    86 Pulay/Diag. 0.10E+00    0.5     3.07367900      -673.3544975970 -1.42E+00
    87 Pulay/Diag. 0.10E+00    0.5     2.64173496      -673.8045296951 -4.50E-01
    88 Pulay/Diag. 0.10E+00    0.5     2.92971944      -673.3051586123  4.99E-01
    89 Pulay/Diag. 0.10E+00    0.5     0.07725316      -671.5292721897  1.78E+00
    90 Pulay/Diag. 0.10E+00    0.5     0.63699140      -671.7207981162 -1.92E-01
    91 Pulay/Diag. 0.10E+00    0.5     0.63031112      -672.4433552673 -7.23E-01
    92 Pulay/Diag. 0.10E+00    0.5     0.78003132      -672.5593326305 -1.16E-01
    93 Pulay/Diag. 0.10E+00    0.5     0.19530039      -672.0168999109  5.42E-01
    94 Pulay/Diag. 0.10E+00    0.5     2.65527078      -671.9802670188  3.66E-02
    95 Pulay/Diag. 0.10E+00    0.5     2.98496759      -673.9745745834 -1.99E+00
    96 Pulay/Diag. 0.10E+00    0.5     2.46288693      -674.5599004209 -5.85E-01
    97 Pulay/Diag. 0.10E+00    0.5     2.76927745      -673.6639150564  8.96E-01
    98 Pulay/Diag. 0.10E+00    0.5     0.10747681      -672.0497127069  1.61E+00
    99 Pulay/Diag. 0.10E+00    0.5     2.61868976      -672.2635334295 -2.14E-01
   100 Pulay/Diag. 0.10E+00    0.5     2.78911340      -674.3229495943 -2.06E+00
   101 Pulay/Diag. 0.10E+00    0.5     0.04523010      -672.1959868642  2.13E+00
   102 Pulay/Diag. 0.10E+00    0.5     0.08218247      -672.2916467842 -9.57E-02
   103 Pulay/Diag. 0.10E+00    0.5     3.00023246      -672.6345561710 -3.43E-01
   104 Pulay/Diag. 0.10E+00    0.5     2.98644764      -674.6780651031 -2.04E+00
   105 Pulay/Diag. 0.10E+00    0.5     0.55465756      -673.6815255940  9.97E-01
   106 Pulay/Diag. 0.10E+00    0.5     0.54077974      -673.6484381991  3.31E-02
   107 Pulay/Diag. 0.10E+00    0.5     0.07767168      -672.6572676617  9.91E-01
   108 Pulay/Diag. 0.10E+00    0.5     3.12715238      -672.7633397012 -1.06E-01
   109 Pulay/Diag. 0.10E+00    0.5     3.07124799      -676.1281623518 -3.36E+00
   110 Pulay/Diag. 0.10E+00    0.5     0.02109481      -672.9734909156  3.15E+00
   111 Pulay/Diag. 0.10E+00    0.5     0.02228099      -672.9979930077 -2.45E-02
   112 Pulay/Diag. 0.10E+00    0.5     0.80901523      -673.0258719404 -2.79E-02
   113 Pulay/Diag. 0.10E+00    0.5     0.06221626      -673.7524004784 -7.27E-01
   114 Pulay/Diag. 0.10E+00    0.5     0.06158643      -673.8039516344 -5.16E-02
   115 Pulay/Diag. 0.10E+00    0.5     0.13032351      -673.8377956727 -3.38E-02
   116 Pulay/Diag. 0.10E+00    0.7     0.64202563      -673.7909261662  4.69E-02
   117 Pulay/Diag. 0.10E+00    0.5     1.95482466      -673.3808480412  4.10E-01
   118 Pulay/Diag. 0.10E+00    0.5     1.74600485      -674.4918381430 -1.11E+00
   119 Pulay/Diag. 0.10E+00    0.5     0.76894222      -673.8033889350  6.88E-01
   120 Pulay/Diag. 0.10E+00    0.5     0.28423014      -673.7644744449  3.89E-02
   121 Pulay/Diag. 0.10E+00    0.5     0.74034635      -673.7339396297  3.05E-02
   122 Pulay/Diag. 0.10E+00    0.5     0.62691637      -673.2490665487  4.85E-01
   123 Pulay/Diag. 0.10E+00    0.5     0.50682667      -673.8073267655 -5.58E-01
   124 Pulay/Diag. 0.10E+00    0.5     0.48951215      -673.4235891614  3.84E-01
   125 Pulay/Diag. 0.10E+00    0.5     0.58191486      -673.8398593839 -4.16E-01
   126 Pulay/Diag. 0.10E+00    0.5     0.67901848      -673.3218895851  5.18E-01
   127 Pulay/Diag. 0.10E+00    0.5     0.67771024      -673.8133630292 -4.91E-01
   128 Pulay/Diag. 0.10E+00    0.5     0.03689981      -673.3779542402  4.35E-01
   129 Pulay/Diag. 0.10E+00    0.5     0.01083729      -673.3485353255  2.94E-02
   130 Pulay/Diag. 0.10E+00    0.5     0.00875329      -673.3465639803  1.97E-03
   131 Pulay/Diag. 0.10E+00    0.5     0.54577085      -673.3523829115 -5.82E-03
   132 Pulay/Diag. 0.10E+00    0.5     0.54675502      -673.6894970369 -3.37E-01
   133 Pulay/Diag. 0.10E+00    0.5     0.77414022      -673.3538064651  3.36E-01
   134 Pulay/Diag. 0.10E+00    0.5     0.77605896      -673.8203438966 -4.67E-01
   135 Pulay/Diag. 0.10E+00    0.5     0.63584348      -673.3727658715  4.48E-01
   136 Pulay/Diag. 0.10E+00    0.5     0.63806613      -673.8025549420 -4.30E-01
   137 Pulay/Diag. 0.10E+00    0.5     0.08782953      -673.3139832291  4.89E-01
   138 Pulay/Diag. 0.10E+00    0.5     0.03055706      -673.3876793810 -7.37E-02
   139 Pulay/Diag. 0.10E+00    0.5     0.00318844      -673.3645025471  2.32E-02
   140 Pulay/Diag. 0.10E+00    0.5     0.73258415      -673.3720898747 -7.59E-03
   141 Pulay/Diag. 0.10E+00    0.5     0.73173675      -673.8151077159 -4.43E-01
   142 Pulay/Diag. 0.10E+00    0.5     0.87283151      -673.3774889981  4.38E-01
   143 Pulay/Diag. 0.10E+00    0.5     0.23382921      -673.8163356258 -4.39E-01
   144 Pulay/Diag. 0.10E+00    0.5     0.63742700      -673.8328735693 -1.65E-02
   145 Pulay/Diag. 0.10E+00    0.5     0.11258017      -673.3580889597  4.75E-01
   146 Pulay/Diag. 0.10E+00    0.5     0.12944131      -673.4314923585 -7.34E-02
   147 Pulay/Diag. 0.10E+00    0.7     0.26402726      -673.3223973597  1.09E-01
   148 Pulay/Diag. 0.10E+00    0.5     0.26101983      -673.5124619857 -1.90E-01
   149 Pulay/Diag. 0.10E+00    0.5     0.69333586      -673.3753546231  1.37E-01
   150 Pulay/Diag. 0.10E+00    0.5     0.69153673      -673.8267123508 -4.51E-01
   151 Pulay/Diag. 0.10E+00    0.5     0.02678036      -673.3546171476  4.72E-01
   152 Pulay/Diag. 0.10E+00    0.5     0.05574040      -673.3347381276  1.99E-02
   153 Pulay/Diag. 0.10E+00    0.5     0.05429573      -673.3714006892 -3.67E-02
   154 Pulay/Diag. 0.10E+00    0.5     0.60992984      -673.3609985057  1.04E-02
   155 Pulay/Diag. 0.10E+00    0.5     0.92576179      -673.8072385108 -4.46E-01
   156 Pulay/Diag. 0.10E+00    0.5     0.59849261      -673.8084031829 -1.16E-03
   157 Pulay/Diag. 0.10E+00    0.5     0.69333077      -673.8282773113 -1.99E-02
   158 Pulay/Diag. 0.10E+00    0.5     0.51982131      -673.3605124307  4.68E-01
   159 Pulay/Diag. 0.10E+00    0.5     0.51615577      -673.8262398201 -4.66E-01
   160 Pulay/Diag. 0.10E+00    0.5     0.03285057      -673.3610826034  4.65E-01
   161 Pulay/Diag. 0.10E+00    0.5     0.55183611      -673.3379876302  2.31E-02
   162 Pulay/Diag. 0.10E+00    0.5     0.80273186      -673.8211827506 -4.83E-01
   163 Pulay/Diag. 0.10E+00    0.5     0.37983163      -673.8226369702 -1.45E-03
   164 Pulay/Diag. 0.10E+00    0.5     0.17844121      -673.8238576029 -1.22E-03
   165 Pulay/Diag. 0.10E+00    0.5     0.01378733      -673.8225421044  1.32E-03
   166 Pulay/Diag. 0.10E+00    0.5     0.13168922      -673.8273977544 -4.86E-03
   167 Pulay/Diag. 0.10E+00    0.5     0.02226778      -673.8260503872  1.35E-03
   168 Pulay/Diag. 0.10E+00    0.5     0.03848497      -673.8312775474 -5.23E-03
   169 Pulay/Diag. 0.10E+00    0.5     4.06265924      -673.6560086206  1.75E-01
   170 Pulay/Diag. 0.10E+00    0.5     4.04068842      -675.3444170556 -1.69E+00
   171 Pulay/Diag. 0.10E+00    0.5     2.94284657      -673.6291846052  1.72E+00
   172 Pulay/Diag. 0.10E+00    0.5     0.82005955      -672.7635333479  8.66E-01
   173 Pulay/Diag. 0.10E+00    0.5     0.15473322      -672.6123322816  1.51E-01
   174 Pulay/Diag. 0.10E+00    0.5     0.12979258      -673.0401106906 -4.28E-01
   175 Pulay/Diag. 0.10E+00    0.5     0.64471700      -673.2721519467 -2.32E-01
   176 Pulay/Diag. 0.10E+00    0.5     0.61766743      -673.7753997195 -5.03E-01
   177 Pulay/Diag. 0.10E+00    0.7     1.89072673      -673.2468210457  5.29E-01
   178 Pulay/Diag. 0.10E+00    0.9     1.99276296      -674.4373186701 -1.19E+00
   179 Pulay/Diag. 0.10E+00    0.8     0.21115335      -673.1412942262  1.30E+00
   180 Pulay/Diag. 0.10E+00    0.5     0.15795179      -673.3680770568 -2.27E-01
   181 Pulay/Diag. 0.10E+00    0.5     0.16539610      -673.4714442211 -1.03E-01
   182 Pulay/Diag. 0.10E+00    0.8     0.01555671      -673.3431910800  1.28E-01
   183 Pulay/Diag. 0.10E+00    0.8     0.01769738      -673.3331797197  1.00E-02
   184 Pulay/Diag. 0.10E+00    0.9     0.70624764      -673.3515987182 -1.84E-02
   185 Pulay/Diag. 0.10E+00    0.8     0.70791603      -673.8249094775 -4.73E-01
   186 Pulay/Diag. 0.10E+00    0.7     0.94149397      -673.3584199908  4.66E-01
   187 Pulay/Diag. 0.10E+00    0.6     1.04359587      -673.7402986021 -3.82E-01
   188 Pulay/Diag. 0.10E+00    0.7     0.78378459      -673.7854600667 -4.52E-02
   189 Pulay/Diag. 0.10E+00    0.9     0.04958614      -673.3787477182  4.07E-01
   190 Pulay/Diag. 0.10E+00    0.7     0.07137136      -673.3369526613  4.18E-02
   191 Pulay/Diag. 0.10E+00    0.7     0.03568056      -673.3946703460 -5.77E-02
   192 Pulay/Diag. 0.10E+00    0.7     0.02956513      -673.3979298629 -3.26E-03
   193 Pulay/Diag. 0.10E+00    0.6     0.82709342      -673.3852000592  1.27E-02
   194 Pulay/Diag. 0.10E+00    0.7     0.79282194      -673.8346468274 -4.49E-01
   195 Pulay/Diag. 0.10E+00    0.6     0.99872580      -673.8374667704 -2.82E-03
   196 Pulay/Diag. 0.10E+00    0.7     0.95675123      -673.7567005718  8.08E-02
   197 Pulay/Diag. 0.10E+00    0.7     0.68702819      -673.7752166781 -1.85E-02
   198 Pulay/Diag. 0.10E+00    0.8     0.84450117      -673.3339486187  4.41E-01
   199 Pulay/Diag. 0.10E+00    0.7     0.83586197      -673.8288409070 -4.95E-01
   200 Pulay/Diag. 0.10E+00    0.7     0.81468835      -673.3913045797  4.38E-01
   201 Pulay/Diag. 0.10E+00    0.7     0.22773586      -673.8212474004 -4.30E-01
   202 Pulay/Diag. 0.10E+00    0.7     0.84882933      -673.8289999871 -7.75E-03
   203 Pulay/Diag. 0.10E+00    0.7     0.89482897      -673.8339206907 -4.92E-03
   204 Pulay/Diag. 0.10E+00    0.7     0.51872077      -673.8216968175  1.22E-02
   205 Pulay/Diag. 0.10E+00    0.8     0.49699490      -673.8153072467  6.39E-03
   206 Pulay/Diag. 0.10E+00    0.8     0.13247829      -673.3870788794  4.28E-01
   207 Pulay/Diag. 0.10E+00    0.7     0.85500995      -673.2702338614  1.17E-01
   208 Pulay/Diag. 0.10E+00    0.8     0.42072009      -673.8314506111 -5.61E-01
   209 Pulay/Diag. 0.10E+00    0.6     0.59583763      -673.8674020867 -3.60E-02
   210 Pulay/Diag. 0.10E+00    0.7     0.65134949      -673.8554686735  1.19E-02
   211 Pulay/Diag. 0.10E+00    0.7     0.56800940      -673.8690390507 -1.36E-02
   212 Pulay/Diag. 0.10E+00    0.8     0.80122240      -673.8685864580  4.53E-04
   213 Pulay/Diag. 0.10E+00    0.8     0.43710004      -673.8660166621  2.57E-03
   214 Pulay/Diag. 0.10E+00    0.7     0.41765820      -673.8719981296 -5.98E-03
   215 Pulay/Diag. 0.10E+00    0.7     7.79864743      -673.7060664787  1.66E-01
   216 Pulay/Diag. 0.10E+00    0.8     7.83110814      -676.3775353005 -2.67E+00
   217 Pulay/Diag. 0.10E+00    0.9     0.73522470      -672.6158262160  3.76E+00
   218 Pulay/Diag. 0.10E+00    0.8     0.20315594      -672.2896848730  3.26E-01
   219 Pulay/Diag. 0.10E+00    0.7     0.03202965      -672.9987567423 -7.09E-01
   220 Pulay/Diag. 0.10E+00    0.6     0.73234508      -673.0999958116 -1.01E-01
   221 Pulay/Diag. 0.10E+00    0.8     0.62129416      -673.8010720873 -7.01E-01
   222 Pulay/Diag. 0.10E+00    0.8     0.02877652      -673.2610154310  5.40E-01
   223 Pulay/Diag. 0.10E+00    0.6     0.64017168      -673.2323193123  2.87E-02
   224 Pulay/Diag. 0.10E+00    0.7     0.79468015      -673.7786024800 -5.46E-01
   225 Pulay/Diag. 0.10E+00    0.8     0.06148447      -673.2045983487  5.74E-01
   226 Pulay/Diag. 0.10E+00    0.7     0.11191252      -673.2835561906 -7.90E-02
   227 Pulay/Diag. 0.10E+00    0.7     0.00667288      -673.3799480897 -9.64E-02
   228 Pulay/Diag. 0.10E+00    0.9     0.58242321      -673.3620502484  1.79E-02
   229 Pulay/Diag. 0.10E+00    0.7     1.85778886      -673.8043932456 -4.42E-01
   230 Pulay/Diag. 0.10E+00    0.7     2.11295615      -674.4922939348 -6.88E-01
   231 Pulay/Diag. 0.10E+00    0.7     0.12986617      -673.2345288518  1.26E+00
   232 Pulay/Diag. 0.10E+00    0.7     0.02098484      -673.3675872019 -1.33E-01
   233 Pulay/Diag. 0.10E+00    0.7     0.51007369      -673.3709410310 -3.35E-03
   234 Pulay/Diag. 0.10E+00    0.7     0.50083216      -673.8338948121 -4.63E-01
   235 Pulay/Diag. 0.10E+00    0.8     0.01430329      -673.3791228220  4.55E-01
   236 Pulay/Diag. 0.10E+00    0.8     0.00812490      -673.3714338021  7.69E-03
   237 Pulay/Diag. 0.10E+00    0.8     0.70412447      -673.3654469919  5.99E-03
   238 Pulay/Diag. 0.10E+00    0.8     0.89586699      -673.8388663008 -4.73E-01
   239 Pulay/Diag. 0.10E+00    0.8     0.98155574      -673.7988106757  4.01E-02
   240 Pulay/Diag. 0.10E+00    0.9     0.56438931      -673.8164531981 -1.76E-02
   241 Pulay/Diag. 0.10E+00    0.8     0.42721568      -673.8352380694 -1.88E-02
   242 Pulay/Diag. 0.10E+00    0.8     0.14820572      -673.8440845970 -8.85E-03
   243 Pulay/Diag. 0.10E+00    0.7     0.65561267      -673.8392267229  4.86E-03
   244 Pulay/Diag. 0.10E+00    0.8     0.59873934      -673.3712508366  4.68E-01
   245 Pulay/Diag. 0.10E+00    0.8     0.46104606      -673.8369926832 -4.66E-01
   246 Pulay/Diag. 0.10E+00    0.8     0.60606870      -673.8342291019  2.76E-03
   247 Pulay/Diag. 0.10E+00    0.8     0.51302187      -673.8390556295 -4.83E-03
   248 Pulay/Diag. 0.10E+00    0.6     0.62539221      -673.8276586058  1.14E-02
   249 Pulay/Diag. 0.10E+00    0.7     0.11025575      -673.8355889169 -7.93E-03
   250 Pulay/Diag. 0.10E+00    0.6     0.13317848      -673.8250503802  1.05E-02
   251 Pulay/Diag. 0.10E+00    0.5     0.52171098      -673.8261782396 -1.13E-03
   252 Pulay/Diag. 0.10E+00    0.5     7.14553330      -673.5866246342  2.40E-01
   253 Pulay/Diag. 0.10E+00    0.5     7.13839462      -675.5912525824 -2.00E+00
   254 Pulay/Diag. 0.10E+00    0.5     0.15513098      -672.3186745038  3.27E+00
   255 Pulay/Diag. 0.10E+00    0.5     0.12906797      -673.0329556539 -7.14E-01
   256 Pulay/Diag. 0.10E+00    0.5     0.07078365      -673.3235004737 -2.91E-01
   257 Pulay/Diag. 0.10E+00    0.5     0.73093076      -673.3222512755  1.25E-03
   258 Pulay/Diag. 0.10E+00    0.5     0.64322710      -673.9569442024 -6.35E-01
   259 Pulay/Diag. 0.10E+00    0.5     0.94649210      -673.3893783206  5.68E-01
   260 Pulay/Diag. 0.10E+00    0.5     0.98769000      -673.8733108936 -4.84E-01
   261 Pulay/Diag. 0.10E+00    0.5     0.89172043      -673.9452493166 -7.19E-02
   262 Pulay/Diag. 0.10E+00    0.5     0.71778080      -673.8758036959  6.94E-02
   263 Pulay/Diag. 0.10E+00    0.5     0.09178219      -673.3011187889  5.75E-01
   264 Pulay/Diag. 0.10E+00    0.6     0.17262132      -673.3746473678 -7.35E-02
   265 Pulay/Diag. 0.10E+00    0.6     0.11030041      -673.4865438353 -1.12E-01
   266 Pulay/Diag. 0.10E+00    0.5     0.85235634      -673.4300694754  5.65E-02
   267 Pulay/Diag. 0.10E+00    0.5     0.85425386      -673.8306053712 -4.01E-01
   268 Pulay/Diag. 0.10E+00    0.5     0.03788458      -673.3490128796  4.82E-01
   269 Pulay/Diag. 0.10E+00    0.5     0.92196793      -673.3415267163  7.49E-03
   270 Pulay/Diag. 0.10E+00    0.5     0.92659856      -673.7831702888 -4.42E-01
   271 Pulay/Diag. 0.10E+00    0.5     0.78848954      -673.8274868051 -4.43E-02
   272 Pulay/Diag. 0.10E+00    0.5     0.02638589      -673.3864210025  4.41E-01
   273 Pulay/Diag. 0.10E+00    0.5     0.72261840      -673.4043139305 -1.79E-02
   274 Pulay/Diag. 0.10E+00    0.5     0.71907331      -673.8282443109 -4.24E-01
   275 Pulay/Diag. 0.10E+00    0.5     1.09858676      -673.2561242237  5.72E-01
   276 Pulay/Diag. 0.10E+00    0.5     1.09776784      -673.7999085221 -5.44E-01
   277 Pulay/Diag. 0.10E+00    0.5     0.02528499      -673.3598933419  4.40E-01
   278 Pulay/Diag. 0.10E+00    0.5     0.75606626      -673.3743746567 -1.45E-02
   279 Pulay/Diag. 0.10E+00    0.5     0.34245783      -673.7872427526 -4.13E-01
   280 Pulay/Diag. 0.10E+00    0.5     0.18439178      -673.8163925955 -2.91E-02
   281 Pulay/Diag. 0.10E+00    0.5     0.98971272      -673.8061913195  1.02E-02
   282 Pulay/Diag. 0.10E+00    0.5     0.92340321      -673.3732907020  4.33E-01
   283 Pulay/Diag. 0.10E+00    0.5     0.10429353      -673.8378940671 -4.65E-01
   284 Pulay/Diag. 0.10E+00    0.5     0.88366052      -673.8260093920  1.19E-02
   285 Pulay/Diag. 0.10E+00    0.5     0.87500405      -673.8221504759  3.86E-03
   286 Pulay/Diag. 0.10E+00    0.5     0.86694674      -673.3570081188  4.65E-01
   287 Pulay/Diag. 0.10E+00    0.5     0.02536244      -673.8272222191 -4.70E-01
   288 Pulay/Diag. 0.10E+00    0.5     0.17028697      -673.8240062499  3.22E-03
   289 Pulay/Diag. 0.10E+00    0.5     0.13043850      -673.8189566944  5.05E-03
   290 Pulay/Diag. 0.10E+00    0.5     0.67655688      -673.8177629765  1.19E-03
   291 Pulay/Diag. 0.10E+00    0.5     0.01599812      -673.3539858512  4.64E-01
   292 Pulay/Diag. 0.10E+00    0.5     0.02281341      -673.3661944689 -1.22E-02
   293 Pulay/Diag. 0.10E+00    0.5     0.89431419      -673.3560293345  1.02E-02
   294 Pulay/Diag. 0.10E+00    0.5     0.27691112      -673.7882001173 -4.32E-01
   295 Pulay/Diag. 0.10E+00    0.5     0.61794191      -673.8272793730 -3.91E-02
   296 Pulay/Diag. 0.10E+00    0.7     0.01100478      -673.3696044542  4.58E-01
   297 Pulay/Diag. 0.10E+00    0.5     0.01708529      -673.3788605554 -9.26E-03
   298 Pulay/Diag. 0.10E+00    0.5     0.87294814      -673.3701480640  8.71E-03
   299 Pulay/Diag. 0.10E+00    0.5     0.25968354      -673.8010048611 -4.31E-01
   300 Pulay/Diag. 0.10E+00    0.5     0.32530768      -673.8309459073 -2.99E-02
   301 Pulay/Diag. 0.10E+00    0.7     0.54377077      -673.8281670316  2.78E-03
   302 Pulay/Diag. 0.10E+00    0.6     0.79443874      -673.3415380202  4.87E-01
   303 Pulay/Diag. 0.10E+00    0.6     0.19277185      -673.7922105874 -4.51E-01
   304 Pulay/Diag. 0.10E+00    0.5     0.60074456      -673.7632825957  2.89E-02
   305 Pulay/Diag. 0.10E+00    0.5     0.01450925      -673.3476215147  4.16E-01
   306 Pulay/Diag. 0.10E+00    0.6     0.00362738      -673.3589205385 -1.13E-02
   307 Pulay/Diag. 0.10E+00    0.6     0.66948285      -673.3567798494  2.14E-03
   308 Pulay/Diag. 0.10E+00    0.8     0.66481906      -673.8240957169 -4.67E-01
   309 Pulay/Diag. 0.10E+00    0.7     0.92276270      -673.3661215866  4.58E-01
   310 Pulay/Diag. 0.10E+00    0.7     0.75078288      -673.8201308534 -4.54E-01
   311 Pulay/Diag. 0.10E+00    0.7     0.53990994      -673.8311963477 -1.11E-02
   312 Pulay/Diag. 0.10E+00    0.7     0.78324873      -673.8265361611  4.66E-03
   313 Pulay/Diag. 0.10E+00    0.8     0.04630677      -673.3600105176  4.67E-01
   314 Pulay/Diag. 0.10E+00    0.8     0.53177975      -673.3559102742  4.10E-03
   315 Pulay/Diag. 0.10E+00    0.7     0.09921849      -673.8215021806 -4.66E-01
   316 Pulay/Diag. 0.10E+00    0.7     0.15517752      -673.8217910716 -2.89E-04
   317 Pulay/Diag. 0.10E+00    0.7     0.21176216      -673.8207677216  1.02E-03
   318 Pulay/Diag. 0.10E+00    0.6     0.10011152      -673.8218863526 -1.12E-03
   319 Pulay/Diag. 0.10E+00    0.8     0.01239087      -673.8198474038  2.04E-03
   320 Pulay/Diag. 0.10E+00    0.8     0.00282854      -673.8206950329 -8.48E-04
   321 Pulay/Diag. 0.10E+00    0.8     0.02196665      -673.8211901983 -4.95E-04
   322 Pulay/Diag. 0.10E+00    0.7     7.29131799      -673.5829578916  2.38E-01
   323 Pulay/Diag. 0.10E+00    0.8     7.29778514      -675.9013390123 -2.32E+00
[...]
     4 Pulay/Diag. 0.10E+00    0.4    38.77270842      -509.6846994375 -6.22E+01
     5 Pulay/Diag. 0.10E+00    0.4    40.99615230      -523.4138578098 -1.37E+01
     6 Pulay/Diag. 0.10E+00    0.4    25.22886640      -573.8972929797 -5.05E+01
     7 Pulay/Diag. 0.10E+00    0.4    10.24729411      -563.7919690651  1.01E+01
     8 Pulay/Diag. 0.10E+00    0.4     7.80984739      -574.9436395105 -1.12E+01
     9 Pulay/Diag. 0.10E+00    0.4     3.47949350      -590.2770880261 -1.53E+01
    10 Pulay/Diag. 0.10E+00    0.4     5.29806629      -584.1424260133  6.13E+00
    11 Pulay/Diag. 0.10E+00    0.4   124.91671609      -641.4081366643 -5.73E+01
    12 Pulay/Diag. 0.10E+00    0.7   124.91738950      -607.8277198668  3.36E+01
    13 Pulay/Diag. 0.10E+00    0.4    10.76890463      -626.6250009761 -1.88E+01
    14 Pulay/Diag. 0.10E+00    0.4     5.33442706      -615.3875232014  1.12E+01
    15 Pulay/Diag. 0.10E+00    0.4     6.60841148      -612.7390812345  2.65E+00
    16 Pulay/Diag. 0.10E+00    0.4     7.69841072      -617.1317841836 -4.39E+00
    17 Pulay/Diag. 0.10E+00    0.4     4.10465008      -621.3537599251 -4.22E+00
    18 Pulay/Diag. 0.10E+00    0.4     3.92645516      -618.6214611135  2.73E+00
    19 Pulay/Diag. 0.10E+00    0.4     5.28666822      -619.6444628382 -1.02E+00
    20 Pulay/Diag. 0.10E+00    0.4    25.28279122      -657.6445634679 -3.80E+01
    21 Pulay/Diag. 0.10E+00    0.4    30.90859534      -668.2215857000 -1.06E+01
    22 Pulay/Diag. 0.10E+00    0.4    16.36507837      -657.6167096421  1.06E+01
    23 Pulay/Diag. 0.10E+00    0.4     4.14599593      -630.1630374567  2.75E+01
    24 Pulay/Diag. 0.10E+00    0.4     5.78055019      -636.3610790371 -6.20E+00
    25 Pulay/Diag. 0.10E+00    0.4     5.76282614      -639.5974294015 -3.24E+00
    26 Pulay/Diag. 0.10E+00    0.4     3.71735474      -639.2140984044  3.83E-01
    27 Pulay/Diag. 0.10E+00    0.4     3.18379434      -636.3073168291  2.91E+00
    28 Pulay/Diag. 0.10E+00    0.4     3.13840053      -636.9547451064 -6.47E-01
    29 Pulay/Diag. 0.10E+00    0.4    22.84705123      -655.0814146766 -1.81E+01
    30 Pulay/Diag. 0.10E+00    0.4    22.95074751      -695.1308848580 -4.00E+01
    31 Pulay/Diag. 0.10E+00    0.4     5.19041413      -660.0104950074  3.51E+01
    32 Pulay/Diag. 0.10E+00    0.4     5.42127862      -659.8869351097  1.24E-01
    33 Pulay/Diag. 0.10E+00    0.4     1.79876214      -658.1692050953  1.72E+00
    34 Pulay/Diag. 0.10E+00    0.4     1.47381177      -658.1298712937  3.93E-02
    35 Pulay/Diag. 0.10E+00    0.4     1.84305255      -661.6266597417 -3.50E+00
    36 Pulay/Diag. 0.10E+00    0.4     2.02136712      -661.7863779605 -1.60E-01
    37 Pulay/Diag. 0.10E+00    0.4     2.15237366      -663.2824988516 -1.50E+00
    38 Pulay/Diag. 0.10E+00    0.4    13.94676658      -667.0294272355 -3.75E+00
    39 Pulay/Diag. 0.10E+00    0.4    13.93364766      -695.0638981101 -2.80E+01
    40 Pulay/Diag. 0.10E+00    0.4     2.59073090      -668.2684839583  2.68E+01
    41 Pulay/Diag. 0.10E+00    0.4     2.05477821      -665.2652121225  3.00E+00
    42 Pulay/Diag. 0.10E+00    0.4     1.83207666      -666.0078677383 -7.43E-01
    43 Pulay/Diag. 0.10E+00    0.4     2.97221875      -667.7873059293 -1.78E+00
    44 Pulay/Diag. 0.10E+00    0.4     2.10772005      -666.6632590230  1.12E+00
    45 Pulay/Diag. 0.10E+00    0.4     2.27346736      -666.5641644378  9.91E-02
    46 Pulay/Diag. 0.10E+00    0.7     2.32182765      -669.3978860978 -2.83E+00
    47 Pulay/Diag. 0.10E+00    0.4    10.48308671      -669.5068551494 -1.09E-01
    48 Pulay/Diag. 0.10E+00    0.4    10.48166876      -674.6051410332 -5.10E+00
    49 Pulay/Diag. 0.10E+00    0.4     1.60413096      -669.9816003508  4.62E+00
    50 Pulay/Diag. 0.10E+00    0.4     2.00310143      -668.8204330771  1.16E+00
    51 Pulay/Diag. 0.10E+00    0.4     2.37552139      -669.8216254752 -1.00E+00
    52 Pulay/Diag. 0.10E+00    0.4     2.50444060      -671.4585165146 -1.64E+00
    53 Pulay/Diag. 0.10E+00    0.4     0.72647310      -670.4329180722  1.03E+00
    54 Pulay/Diag. 0.10E+00    0.4     2.56437367      -671.4781065365 -1.05E+00
    55 Pulay/Diag. 0.10E+00    0.4     2.54788915      -674.1428923268 -2.66E+00
    56 Pulay/Diag. 0.10E+00    0.4     8.21448733      -671.4775559445  2.67E+00
    57 Pulay/Diag. 0.10E+00    0.4     8.17258716      -675.6297638435 -4.15E+00
    58 Pulay/Diag. 0.10E+00    0.4     0.46987976      -671.2077730683  4.42E+00
    59 Pulay/Diag. 0.10E+00    0.4     0.70629584      -671.7213617981 -5.14E-01
    60 Pulay/Diag. 0.10E+00    0.4     2.15202989      -671.6754334612  4.59E-02
    61 Pulay/Diag. 0.10E+00    0.4     2.25938567      -673.1877150790 -1.51E+00
    62 Pulay/Diag. 0.10E+00    0.4     1.71598984      -671.8583067770  1.33E+00
    63 Pulay/Diag. 0.10E+00    0.4     1.80144994      -672.7560441325 -8.98E-01
    64 Pulay/Diag. 0.10E+00    0.4     1.71799313      -673.3944924425 -6.38E-01
    65 Pulay/Diag. 0.10E+00    0.4     2.66583318      -673.5776702608 -1.83E-01
    66 Pulay/Diag. 0.10E+00    0.4     1.43373118      -674.6005070853 -1.02E+00
    67 Pulay/Diag. 0.10E+00    0.4     1.91622631      -673.1674336842  1.43E+00
    68 Pulay/Diag. 0.10E+00    0.4     1.32207008      -672.6142386147  5.53E-01
    69 Pulay/Diag. 0.10E+00    0.4     0.61473291      -672.2984937022  3.16E-01
    70 Pulay/Diag. 0.10E+00    0.4     0.43793960      -672.4244041312 -1.26E-01
    71 Pulay/Diag. 0.10E+00    0.4     0.97976919      -672.3629298729  6.15E-02
    72 Pulay/Diag. 0.10E+00    0.4     1.42880443      -672.9733873166 -6.10E-01
    73 Pulay/Diag. 0.10E+00    0.4     7.81346323      -672.7785205545  1.95E-01
    74 Pulay/Diag. 0.10E+00    0.4     7.91654966      -675.0981131047 -2.32E+00
    75 Pulay/Diag. 0.10E+00    0.4     1.47023233      -673.3637169170  1.73E+00
    76 Pulay/Diag. 0.10E+00    0.4     0.76551408      -672.5198704903  8.44E-01
    77 Pulay/Diag. 0.10E+00    0.4     1.68153252      -673.0260110379 -5.06E-01
    78 Pulay/Diag. 0.10E+00    0.4     0.56878884      -671.6821211173  1.34E+00
    79 Pulay/Diag. 0.10E+00    0.5     0.75248331      -672.5214400104 -8.39E-01
    80 Pulay/Diag. 0.10E+00    0.6     2.27501579      -672.4192813368  1.02E-01
    81 Pulay/Diag. 0.10E+00    0.4     2.37465265      -673.6109554121 -1.19E+00
    82 Pulay/Diag. 0.10E+00    0.4     7.40328362      -672.7971133300  8.14E-01
    83 Pulay/Diag. 0.10E+00    0.4     7.39769576      -677.1154937055 -4.32E+00
    84 Pulay/Diag. 0.10E+00    0.4     1.50630025      -672.3992962331  4.72E+00
    85 Pulay/Diag. 0.10E+00    0.4     1.52280873      -673.7101943398 -1.31E+00
    86 Pulay/Diag. 0.10E+00    0.4     1.01831653      -672.7369364964  9.73E-01
    87 Pulay/Diag. 0.10E+00    0.4     1.67830885      -672.9443212794 -2.07E-01
    88 Pulay/Diag. 0.10E+00    0.4     1.59344262      -674.3191999611 -1.37E+00
    89 Pulay/Diag. 0.10E+00    0.4     2.56831978      -673.5067650261  8.12E-01
    90 Pulay/Diag. 0.10E+00    0.4     2.24576460      -675.3124917649 -1.81E+00
    91 Pulay/Diag. 0.10E+00    0.4     1.29189085      -673.6837247998  1.63E+00
    92 Pulay/Diag. 0.10E+00    0.4     0.87716097      -672.7777807924  9.06E-01
    93 Pulay/Diag. 0.10E+00    0.4     0.39511011      -672.9325488432 -1.55E-01
    94 Pulay/Diag. 0.10E+00    0.4     0.43307013      -672.8341670736  9.84E-02
    95 Pulay/Diag. 0.10E+00    0.4     0.48507522      -672.7220362311  1.12E-01
    96 Pulay/Diag. 0.10E+00    0.4     1.18518793      -673.0746131330 -3.53E-01
    97 Pulay/Diag. 0.10E+00    0.4     1.20772642      -673.9190443171 -8.44E-01
    98 Pulay/Diag. 0.10E+00    0.4     0.50539504      -672.5762181147  1.34E+00
    99 Pulay/Diag. 0.10E+00    0.4     2.53302732      -673.4837089717 -9.07E-01
   100 Pulay/Diag. 0.10E+00    0.4     2.55716986      -675.8043237971 -2.32E+00
   101 Pulay/Diag. 0.10E+00    0.4     0.60795377      -673.1779986573  2.63E+00
   102 Pulay/Diag. 0.10E+00    0.4     0.47227729      -673.0970989346  8.09E-02
   103 Pulay/Diag. 0.10E+00    0.4     0.17642358      -672.4676998453  6.29E-01
   104 Pulay/Diag. 0.10E+00    0.4     0.63793541      -672.7406138644 -2.73E-01
   105 Pulay/Diag. 0.10E+00    0.4     1.68500373      -673.2770616586 -5.36E-01
   106 Pulay/Diag. 0.10E+00    0.4     1.78059700      -673.5665302653 -2.89E-01
   107 Pulay/Diag. 0.10E+00    0.4     0.67431544      -672.7126782796  8.54E-01
   108 Pulay/Diag. 0.10E+00    0.4     2.53168682      -673.4835539395 -7.71E-01
   109 Pulay/Diag. 0.10E+00    0.4     2.49918879      -675.8790634161 -2.40E+00
   110 Pulay/Diag. 0.10E+00    0.4     0.50685634      -673.3593118224  2.52E+00
   111 Pulay/Diag. 0.10E+00    0.4     0.52627192      -673.3814367211 -2.21E-02
   112 Pulay/Diag. 0.10E+00    0.4     0.09489952      -673.3071495486  7.43E-02
   113 Pulay/Diag. 0.10E+00    0.6     0.60886460      -673.3258725198 -1.87E-02
   114 Pulay/Diag. 0.10E+00    0.6     1.22010539      -673.5429078727 -2.17E-01
   115 Pulay/Diag. 0.10E+00    0.4     1.03039931      -673.7426382511 -2.00E-01
   116 Pulay/Diag. 0.10E+00    0.4     0.74531413      -673.1426365075  6.00E-01
   117 Pulay/Diag. 0.10E+00    0.4     1.34875066      -673.0940633247  4.86E-02
   118 Pulay/Diag. 0.10E+00    0.4     1.27706073      -674.3069335500 -1.21E+00
   119 Pulay/Diag. 0.10E+00    0.4     0.35323156      -673.6198684253  6.87E-01
   120 Pulay/Diag. 0.10E+00    0.4     0.55992898      -673.5187397686  1.01E-01
   121 Pulay/Diag. 0.10E+00    0.4     0.57066054      -673.0050773973  5.14E-01
   122 Pulay/Diag. 0.10E+00    0.4     0.65036116      -673.5515023866 -5.46E-01
   123 Pulay/Diag. 0.10E+00    0.4     1.22144537      -673.7174445234 -1.66E-01
   124 Pulay/Diag. 0.10E+00    0.4     1.22124345      -673.7618829523 -4.44E-02
   125 Pulay/Diag. 0.10E+00    0.4     0.03735637      -673.0955243832  6.66E-01
   126 Pulay/Diag. 0.10E+00    0.4     1.99254899      -673.1064257571 -1.09E-02
   127 Pulay/Diag. 0.10E+00    0.4     1.93925532      -674.3061122537 -1.20E+00
   128 Pulay/Diag. 0.10E+00    0.4     0.43147718      -673.6242088468  6.82E-01
   129 Pulay/Diag. 0.10E+00    0.4     0.47914137      -673.6741555422 -4.99E-02
   130 Pulay/Diag. 0.10E+00    0.4     0.49684390      -673.6313251841  4.28E-02
   131 Pulay/Diag. 0.10E+00    0.4     0.58522571      -673.6926771034 -6.14E-02
   132 Pulay/Diag. 0.10E+00    0.4     1.23940424      -673.8608341863 -1.68E-01
   133 Pulay/Diag. 0.10E+00    0.4     1.23858120      -673.8818494850 -2.10E-02
   134 Pulay/Diag. 0.10E+00    0.4     0.01914855      -673.1904183066  6.91E-01
   135 Pulay/Diag. 0.10E+00    0.4     0.66261119      -673.2061051499 -1.57E-02
   136 Pulay/Diag. 0.10E+00    0.4     0.50015837      -673.6019939823 -3.96E-01
   137 Pulay/Diag. 0.10E+00    0.7     0.47597699      -673.6581762951 -5.62E-02
   138 Pulay/Diag. 0.10E+00    0.7     0.55637591      -673.7155510497 -5.74E-02
   139 Pulay/Diag. 0.10E+00    0.7     0.65282147      -673.7282321202 -1.27E-02
   140 Pulay/Diag. 0.10E+00    0.8     0.64838110      -673.6858078223  4.24E-02
   141 Pulay/Diag. 0.10E+00    0.7     1.08608694      -673.8874318149 -2.02E-01
   142 Pulay/Diag. 0.10E+00    0.6     0.95279520      -673.5737289009  3.14E-01
   143 Pulay/Diag. 0.10E+00    0.7     1.42800704      -673.5493851016  2.43E-02
   144 Pulay/Diag. 0.10E+00    0.7     1.49186851      -673.7528637889 -2.03E-01
   145 Pulay/Diag. 0.10E+00    0.6     0.52340206      -672.9970844751  7.56E-01
   146 Pulay/Diag. 0.10E+00    0.7     0.42732674      -673.6144091721 -6.17E-01
   147 Pulay/Diag. 0.10E+00    0.7     0.67610633      -673.6384152509 -2.40E-02
   148 Pulay/Diag. 0.10E+00    0.7     0.67838183      -673.7607764519 -1.22E-01
   149 Pulay/Diag. 0.10E+00    0.6     0.63383979      -673.5383058595  2.22E-01
   150 Pulay/Diag. 0.10E+00    0.6     0.63847620      -673.7191001339 -1.81E-01
   151 Pulay/Diag. 0.10E+00    0.7     0.77565035      -673.2067647539  5.12E-01
   152 Pulay/Diag. 0.10E+00    0.7     0.78014211      -673.3845766710 -1.78E-01
   153 Pulay/Diag. 0.10E+00    0.7     0.64187424      -673.6042069913 -2.20E-01
   154 Pulay/Diag. 0.10E+00    0.6     0.70755051      -673.1154550846  4.89E-01
   155 Pulay/Diag. 0.10E+00    0.8     0.65699955      -673.6074404362 -4.92E-01
   156 Pulay/Diag. 0.10E+00    0.7     0.64124251      -673.6437557663 -3.63E-02
   157 Pulay/Diag. 0.10E+00    0.7     0.89548974      -673.7210574160 -7.73E-02
   158 Pulay/Diag. 0.10E+00    0.7     0.89799036      -673.5424671140  1.79E-01
   159 Pulay/Diag. 0.10E+00    0.6     0.63540888      -673.7856884365 -2.43E-01
   160 Pulay/Diag. 0.10E+00    0.8     0.65228388      -673.6324582799  1.53E-01
   161 Pulay/Diag. 0.10E+00    0.6     0.68271336      -673.5456754965  8.68E-02
   162 Pulay/Diag. 0.10E+00    0.6     0.01584787      -673.2165485117  3.29E-01
   163 Pulay/Diag. 0.10E+00    0.7     0.85401802      -673.2189704634 -2.42E-03
   164 Pulay/Diag. 0.10E+00    0.6     0.84806429      -673.6507764762 -4.32E-01
   165 Pulay/Diag. 0.10E+00    0.8     0.61874228      -673.7326186387 -8.18E-02
   166 Pulay/Diag. 0.10E+00    0.7     0.61381001      -673.8152530973 -8.26E-02
   167 Pulay/Diag. 0.10E+00    0.6     0.59451807      -673.6268083326  1.88E-01
   168 Pulay/Diag. 0.10E+00    0.6     0.66031979      -673.8277577594 -2.01E-01
   169 Pulay/Diag. 0.10E+00    0.6     0.65642594      -673.6484148895  1.79E-01
   170 Pulay/Diag. 0.10E+00    0.8     0.68683941      -673.5888603929  5.96E-02
   171 Pulay/Diag. 0.10E+00    0.6     0.55206903      -673.3080593193  2.81E-01
   172 Pulay/Diag. 0.10E+00    0.7     0.77832603      -673.6922000730 -3.84E-01
   173 Pulay/Diag. 0.10E+00    0.6     0.75759461      -673.6062254424  8.60E-02
   174 Pulay/Diag. 0.10E+00    0.6     0.57682747      -673.6632828368 -5.71E-02
   175 Pulay/Diag. 0.10E+00    0.7     0.72456261      -673.6482082221  1.51E-02
   176 Pulay/Diag. 0.10E+00    0.6     0.72565243      -673.4711389454  1.77E-01
   177 Pulay/Diag. 0.10E+00    0.6     0.75538457      -673.7312599033 -2.60E-01
   178 Pulay/Diag. 0.10E+00    0.7     0.71107618      -673.5748011646  1.56E-01
   179 Pulay/Diag. 0.10E+00    0.7     0.71244019      -673.4465205264  1.28E-01
   180 Pulay/Diag. 0.10E+00    0.6     0.09929949      -673.0669964657  3.80E-01
   181 Pulay/Diag. 0.10E+00    0.7     0.86764971      -673.2055967472 -1.39E-01
   182 Pulay/Diag. 0.10E+00    0.6     0.75999239      -673.6180251884 -4.12E-01
   183 Pulay/Diag. 0.10E+00    0.7     0.67152828      -673.7105050656 -9.25E-02
   184 Pulay/Diag. 0.10E+00    0.6     0.77925519      -673.7916624731 -8.12E-02
   185 Pulay/Diag. 0.10E+00    0.7     0.77912061      -673.5509738849  2.41E-01
   186 Pulay/Diag. 0.10E+00    0.7     0.72173446      -673.8590749460 -3.08E-01
   187 Pulay/Diag. 0.10E+00    0.8     0.71522888      -673.6373992127  2.22E-01
   188 Pulay/Diag. 0.10E+00    0.7     0.73539297      -673.5629259442  7.45E-02
   189 Pulay/Diag. 0.10E+00    0.6     0.03112569      -673.2578000872  3.05E-01
   190 Pulay/Diag. 0.10E+00    0.7     0.77647997      -673.2412735618  1.65E-02
   191 Pulay/Diag. 0.10E+00    0.8     0.66286032      -673.6448073282 -4.04E-01
   192 Pulay/Diag. 0.10E+00    0.6     0.62226718      -673.7000764968 -5.53E-02
   193 Pulay/Diag. 0.10E+00    0.6     0.83790046      -673.7797210678 -7.96E-02
   194 Pulay/Diag. 0.10E+00    0.7     0.83597641      -673.5716331593  2.08E-01
   195 Pulay/Diag. 0.10E+00    0.7     0.67157054      -673.8490544095 -2.77E-01
   196 Pulay/Diag. 0.10E+00    0.7     0.65074031      -673.6660700547  1.83E-01
   197 Pulay/Diag. 0.10E+00    0.6     0.68709463      -673.6058974030  6.02E-02
   198 Pulay/Diag. 0.10E+00    0.7     0.09574872      -673.2968311506  3.09E-01
   199 Pulay/Diag. 0.10E+00    0.6     0.70359610      -673.2181747929  7.87E-02
   200 Pulay/Diag. 0.10E+00    0.7     0.60390357      -673.6688591539 -4.51E-01
   201 Pulay/Diag. 0.10E+00    0.6     0.58654438      -673.7004484607 -3.16E-02
   202 Pulay/Diag. 0.10E+00    0.6     0.83743098      -673.7680919539 -6.76E-02
   203 Pulay/Diag. 0.10E+00    0.7     0.83705140      -673.5582659029  2.10E-01
   204 Pulay/Diag. 0.10E+00    0.7     0.61163542      -673.8278904177 -2.70E-01
   205 Pulay/Diag. 0.10E+00    0.6     0.68285223      -673.6504508387  1.77E-01
   206 Pulay/Diag. 0.10E+00    0.7     0.67462474      -673.6029250079  4.75E-02
   207 Pulay/Diag. 0.10E+00    0.6     1.04809577      -673.5327018328  7.02E-02
   208 Pulay/Diag. 0.10E+00    0.6     1.05529075      -673.7251011050 -1.92E-01
   209 Pulay/Diag. 0.10E+00    0.7     0.54774101      -673.0176444945  7.07E-01
   210 Pulay/Diag. 0.10E+00    0.7     0.53914560      -673.6094351146 -5.92E-01
   211 Pulay/Diag. 0.10E+00    0.7     0.56087111      -673.7627453323 -1.53E-01
   212 Pulay/Diag. 0.10E+00    0.6     0.47411966      -673.2353528550  5.27E-01
   213 Pulay/Diag. 0.10E+00    0.7     0.47114734      -673.7703998069 -5.35E-01
   214 Pulay/Diag. 0.10E+00    0.6     0.65761154      -673.5951744665  1.75E-01
   215 Pulay/Diag. 0.10E+00    0.7     0.99721883      -673.4702543515  1.25E-01
   216 Pulay/Diag. 0.10E+00    0.7     0.70158924      -673.5146887712 -4.44E-02
   217 Pulay/Diag. 0.10E+00    0.5     0.46624220      -673.6900501465 -1.75E-01
   218 Pulay/Diag. 0.10E+00    0.4     0.36719326      -673.6381461453  5.19E-02
   219 Pulay/Diag. 0.10E+00    0.4     0.53682294      -673.2297593004  4.08E-01
   220 Pulay/Diag. 0.10E+00    0.4     0.47755546      -673.7077992755 -4.78E-01
   221 Pulay/Diag. 0.10E+00    0.4     0.62457042      -673.6834182916  2.44E-02
   222 Pulay/Diag. 0.10E+00    0.4     0.64212107      -673.8327808482 -1.49E-01
   223 Pulay/Diag. 0.10E+00    0.4     0.64581767      -673.6190077915  2.14E-01
   224 Pulay/Diag. 0.10E+00    0.4     0.58226594      -673.5679693679  5.10E-02
   225 Pulay/Diag. 0.10E+00    0.4     0.53743875      -673.4462780094  1.22E-01
   226 Pulay/Diag. 0.10E+00    0.4     0.60248761      -673.7566292539 -3.10E-01
   227 Pulay/Diag. 0.10E+00    0.4     0.61049014      -673.5307811633  2.26E-01
   228 Pulay/Diag. 0.10E+00    0.4     0.72949154      -673.0689542835  4.62E-01
   229 Pulay/Diag. 0.10E+00    0.4     0.40075148      -673.6740567991 -6.05E-01
   230 Pulay/Diag. 0.10E+00    0.4     0.66315459      -673.6682523294  5.80E-03
   231 Pulay/Diag. 0.10E+00    0.4     0.66553431      -673.8191420169 -1.51E-01
   232 Pulay/Diag. 0.10E+00    0.4     0.73897798      -673.6362568103  1.83E-01
   233 Pulay/Diag. 0.10E+00    0.4     0.35025356      -673.5872546817  4.90E-02
   234 Pulay/Diag. 0.10E+00    0.4     0.58817946      -673.6452497337 -5.80E-02
   235 Pulay/Diag. 0.10E+00    0.4     0.97953837      -673.7693271868 -1.24E-01
   236 Pulay/Diag. 0.10E+00    0.4     0.98826683      -673.3759735639  3.93E-01
   237 Pulay/Diag. 0.10E+00    0.4     0.89088352      -673.3117649321  6.42E-02
   238 Pulay/Diag. 0.10E+00    0.4     0.57907127      -673.3609108959 -4.91E-02
   239 Pulay/Diag. 0.10E+00    0.4     0.79592596      -673.3904567900 -2.95E-02
   240 Pulay/Diag. 0.10E+00    0.4     0.79866982      -673.5846367585 -1.94E-01
   241 Pulay/Diag. 0.10E+00    0.7     0.02426423      -673.1336659273  4.51E-01
   242 Pulay/Diag. 0.10E+00    0.5     1.78438820      -673.2257037126 -9.20E-02
   243 Pulay/Diag. 0.10E+00    0.4     1.85398482      -674.3702233629 -1.14E+00
   244 Pulay/Diag. 0.10E+00    0.4     0.74599200      -673.7161888284  6.54E-01
   245 Pulay/Diag. 0.10E+00    0.4     0.03974055      -673.0780298223  6.38E-01
   246 Pulay/Diag. 0.10E+00    0.4     0.60687270      -673.2150115858 -1.37E-01
   247 Pulay/Diag. 0.10E+00    0.4     0.36506268      -673.6780302529 -4.63E-01
   248 Pulay/Diag. 0.10E+00    0.4     0.58877347      -673.6727295269  5.30E-03
   249 Pulay/Diag. 0.10E+00    0.4     0.48044422      -673.6961011630 -2.34E-02
