       6
 i =       10, E =       -34.4580811733
  O        -1.3950981854       -0.1834283462       -0.9293742171
  H        -1.3949989774        0.5550923200       -1.5565890450
  H        -0.5276090495       -0.0972819512       -0.4686987313
  O         1.1161115599        0.0906783321        0.4654142591
  H         1.1149885395       -0.6545147591        1.0847120650
  H         1.9841042444        0.0016518083       -0.0024635378
