       6
 i =       10, E =       -34.4580811733
  O        -1.3950981854       -0.1834283462       -0.9293742171
  H        -1.3949989774        0.5550923200       -1.5565890450
  H        -0.5276090495       -0.0972819512       -0.4686987313
  O         1.1161115599        0.0906783321        0.4654142591
  H         1.1149885395       -0.6545147591        1.0847120650
  H         1.9841042444        0.0016518083       -0.0024635378
       6
 i =       64, E =       -34.4585517715
  O        -1.4852178381        0.2896807443       -0.7493166071
  H        -1.4590171601        1.2539453083       -0.6845432159
  H        -0.5764388750       -0.0012594612       -0.4572210920
  O         0.9266082915       -0.5631971378        0.1044357014
  H         0.9518633331       -0.4854164948        1.0684437076
  H         1.8333268423       -0.2895626820       -0.1860548545
       6
 i =       74, E =       -34.4530307469
  O        -1.3916171109        0.1939545489       -0.8388085112
  H        -1.4111691704        1.1425700172       -1.0224757174
  H        -0.4788880503        0.0477545947       -0.4037649524
  O         0.8339940384       -0.1903395827        0.2826915098
  H         0.8661976068        0.1297298322        1.1955366504
  H         1.7592683399       -0.1093510305       -0.0556482478
       6
 i =       52, E =       -34.4386065260
  O        -1.3029447994       -0.0881379207       -0.8462975333
  H        -1.4155309771        0.6967826232       -1.4004526823
  H        -0.3571753234        0.0704590167       -0.3671603736
  O         0.7457841925        0.2738718203        0.2925676126
  H         0.7040363992       -0.2163953249        1.1295453012
  H         1.6586220628        0.1079531689       -0.0551855328
       6
 i =       39, E =       -34.4154095043
  O        -1.1211606264        0.3662950401       -0.9263016615
  H        -1.1402408342        1.3312074196       -0.9133442012
  H        -0.1818285973        0.0306690494       -0.3099711186
  O         0.6615960939       -0.3678659421        0.2774113296
  H         0.5941250304       -0.1302948504        1.2211970820
  H         1.5821699864       -0.1451242098       -0.0211772859
       6
 i =      150, E =       -34.4518132155
  O        -2.1226408948        0.9214160919       -1.2010150200
  H        -2.1707947137        1.8789502972       -1.0721888573
  H        -0.2476287286        0.1828136733       -0.3332259656
  O         0.5482801825       -0.0892980799       -0.0061608895
  H         0.5358646570        0.1317685075        0.9359066113
  H         2.0479330398        0.5823446043       -0.7835404395
