       6
 i =        3, E =       -34.4580833867
  O        -1.3950717168       -0.1834088402       -0.9291693611
  H        -1.3957675658        0.5546426020       -1.5569384833
  H        -0.5284256879       -0.0946673296       -0.4671239026
  O         1.1156530397        0.0910577462        0.4653585079
  H         1.1142245666       -0.6543802866        1.0843081963
  H         1.9833561322        0.0013093234       -0.0028267047
