       6
 i =        3, E =       -34.4580832359
  O        -1.3952067040       -0.1833734952       -0.9289635567
  H        -1.3957624019        0.5551174621       -1.5562586530
  H        -0.5286888576       -0.0943487976       -0.4667378279
  O         1.1157348996        0.0907162665        0.4652517412
  H         1.1137079906       -0.6549536204        1.0839251717
  H         1.9835501234        0.0013999623       -0.0028100358
