       6
 i =       39, E =       -34.4154095043
  O        -1.1211606264        0.3662950401       -0.9263016615
  H        -1.1402408342        1.3312074196       -0.9133442012
  H        -0.1818285973        0.0306690494       -0.3099711186
  O         0.6615960939       -0.3678659421        0.2774113296
  H         0.5941250304       -0.1302948504        1.2211970820
  H         1.5821699864       -0.1451242098       -0.0211772859
