       6
 i =        5, E =       -34.4580832029
  O        -1.3949790249       -0.1833987865       -0.9293769791
  H        -1.3957689185        0.5553881976       -1.5562734655
  H        -0.5288336480       -0.0942863084       -0.4665234355
  O         1.1156083392        0.0908951135        0.4652880757
  H         1.1137892582       -0.6550193187        1.0836229772
  H         1.9835692324        0.0012154141       -0.0024918315
