 DBCSR| Multiplication driver                                               BLAS
 DBCSR| Multrec recursion limit                                              512
 DBCSR| Multiplication stack size                                           1000
 DBCSR| Maximum elements for images                                    UNLIMITED
 DBCSR| Multiplicative factor virtual images                                   1
 DBCSR| Multiplication size stacks                                             3
 DBCSR| Number of 3D layers                                               SINGLE
 DBCSR| Use MPI memory allocation                                              T
 DBCSR| Use RMA algorithm                                                      F
 DBCSR| Use Communication thread                                               T
 DBCSR| Communication thread load                                             87


  **** **** ******  **  PROGRAM STARTED AT               2019-07-07 22:04:20.829
 ***** ** ***  *** **   PROGRAM STARTED ON        blg9150.int.ets1.calculquebec.
 **    ****   ******    PROGRAM STARTED BY                                   rzk
 ***** **    ** ** **   PROGRAM PROCESS ID                                137624
  **** **  *******  **  PROGRAM STARTED IN /lustre04/scratch/rzk/rzk/GaN-carbene
                                           /443-adatoms-both-2x2/09-BondBreaking
                                           -CH/02-0401-CH-to-NTop-PES/PRACTICE

 CP2K| version string:                    CP2K version 7.0 (Development Version)
 CP2K| source code revision number:                                    svn:18619
 CP2K| cp2kflags: libint fftw3 libxc parallel mpi3 scalapack mkl                
 CP2K| is freely available from                            https://www.cp2k.org/
 CP2K| Program compiled at                          Sun Apr  7 00:48:11 EDT 2019
 CP2K| Program compiled on                      beluga2.int.ets1.calculquebec.ca
 CP2K| Program compiled for                    Beluga-Linux-x86-64-intel-openmpi
 CP2K| Data directory path    /home/rzk/projects/def-rzk/group/cp2k/cp2k-mcgill/
 CP2K| Input file name                                                 start.inp
 
 GLOBAL| Force Environment number                                              1
 GLOBAL| Basis set file name                                        BASIS_MOLOPT
 GLOBAL| Potential file name                                      GTH_POTENTIALS
 GLOBAL| MM Potential file name                                     MM_POTENTIAL
 GLOBAL| Coordinate file name                                      __STD_INPUT__
 GLOBAL| Method name                                                        CP2K
 GLOBAL| Project name                                                       TEST
 GLOBAL| Preferred FFT library                                             FFTW3
 GLOBAL| Preferred diagonalization lib.                                       SL
 GLOBAL| Run type                                                        GEO_OPT
 GLOBAL| All-to-all communication in single precision                          F
 GLOBAL| FFTs using library dependent lengths                                  F
 GLOBAL| Global print level                                               MEDIUM
 GLOBAL| MPI I/O enabled                                                       T
 GLOBAL| Total number of message passing processes                            40
 GLOBAL| Number of threads for this process                                    1
 GLOBAL| This output is from process                                           0
 GLOBAL| CPU model name :  Intel(R) Xeon(R) Gold 6148 CPU @ 2.40GHz

 MEMORY| system memory details [Kb]
 MEMORY|                        rank 0           min           max       average
 MEMORY| MemTotal            196614300     196614300     196614300     196614300
 MEMORY| MemFree             176943696     176941216     176944316     176942673
 MEMORY| Buffers                    76            76            76            76
 MEMORY| Cached                6915104       6915104       6915104       6915104
 MEMORY| Slab                  2165764       2165764       2165764       2165764
 MEMORY| SReclaimable           229912        229912        229912        229912
 MEMORY| MemLikelyFree       184088788     184086308     184089408     184087765


 *** Fundamental physical constants (SI units) ***

 *** Literature: B. J. Mohr and B. N. Taylor,
 ***             CODATA recommended values of the fundamental physical
 ***             constants: 2006, Web Version 5.1
 ***             http://physics.nist.gov/constants

 Speed of light in vacuum [m/s]                             2.99792458000000E+08
 Magnetic constant or permeability of vacuum [N/A**2]       1.25663706143592E-06
 Electric constant or permittivity of vacuum [F/m]          8.85418781762039E-12
 Planck constant (h) [J*s]                                  6.62606896000000E-34
 Planck constant (h-bar) [J*s]                              1.05457162825177E-34
 Elementary charge [C]                                      1.60217648700000E-19
 Electron mass [kg]                                         9.10938215000000E-31
 Electron g factor [ ]                                     -2.00231930436220E+00
 Proton mass [kg]                                           1.67262163700000E-27
 Fine-structure constant                                    7.29735253760000E-03
 Rydberg constant [1/m]                                     1.09737315685270E+07
 Avogadro constant [1/mol]                                  6.02214179000000E+23
 Boltzmann constant [J/K]                                   1.38065040000000E-23
 Atomic mass unit [kg]                                      1.66053878200000E-27
 Bohr radius [m]                                            5.29177208590000E-11

 *** Conversion factors ***

 [u] -> [a.u.]                                              1.82288848426455E+03
 [Angstrom] -> [Bohr] = [a.u.]                              1.88972613288564E+00
 [a.u.] = [Bohr] -> [Angstrom]                              5.29177208590000E-01
 [a.u.] -> [s]                                              2.41888432650478E-17
 [a.u.] -> [fs]                                             2.41888432650478E-02
 [a.u.] -> [J]                                              4.35974393937059E-18
 [a.u.] -> [N]                                              8.23872205491840E-08
 [a.u.] -> [K]                                              3.15774647902944E+05
 [a.u.] -> [kJ/mol]                                         2.62549961709828E+03
 [a.u.] -> [kcal/mol]                                       6.27509468713739E+02
 [a.u.] -> [Pa]                                             2.94210107994716E+13
 [a.u.] -> [bar]                                            2.94210107994716E+08
 [a.u.] -> [atm]                                            2.90362800883016E+08
 [a.u.] -> [eV]                                             2.72113838565563E+01
 [a.u.] -> [Hz]                                             6.57968392072181E+15
 [a.u.] -> [1/cm] (wave numbers)                            2.19474631370540E+05
 [a.u./Bohr**2] -> [1/cm]                                   5.14048714338585E+03
 
          ----------------------------------------------------------------------
 COLVARS| COLVAR INPUT INDEX:        1
 COLVARS| BOND          >>> ATOMS:                                     3       4
          ----------------------------------------------------------------------

 CELL_TOP| Volume [angstrom^3]:                                          125.000
 CELL_TOP| Vector a [angstrom     5.000     0.000     0.000    |a| =       5.000
 CELL_TOP| Vector b [angstrom     0.000     5.000     0.000    |b| =       5.000
 CELL_TOP| Vector c [angstrom     0.000     0.000     5.000    |c| =       5.000
 CELL_TOP| Angle (b,c), alpha [degree]:                                   90.000
 CELL_TOP| Angle (a,c), beta  [degree]:                                   90.000
 CELL_TOP| Angle (a,b), gamma [degree]:                                   90.000
 CELL_TOP| Numerically orthorhombic:                                         YES
 
 GENERATE|  Preliminary Number of Bonds generated:                             0
 GENERATE|  Achieved consistency in connectivity generation.

 CELL| Volume [angstrom^3]:                                              125.000
 CELL| Vector a [angstrom]:       5.000     0.000     0.000    |a| =       5.000
 CELL| Vector b [angstrom]:       0.000     5.000     0.000    |b| =       5.000
 CELL| Vector c [angstrom]:       0.000     0.000     5.000    |c| =       5.000
 CELL| Angle (b,c), alpha [degree]:                                       90.000
 CELL| Angle (a,c), beta  [degree]:                                       90.000
 CELL| Angle (a,b), gamma [degree]:                                       90.000
 CELL| Numerically orthorhombic:                                             YES

 CELL_REF| Volume [angstrom^3]:                                          125.000
 CELL_REF| Vector a [angstrom     5.000     0.000     0.000    |a| =       5.000
 CELL_REF| Vector b [angstrom     0.000     5.000     0.000    |b| =       5.000
 CELL_REF| Vector c [angstrom     0.000     0.000     5.000    |c| =       5.000
 CELL_REF| Angle (b,c), alpha [degree]:                                   90.000
 CELL_REF| Angle (a,c), beta  [degree]:                                   90.000
 CELL_REF| Angle (a,b), gamma [degree]:                                   90.000
 CELL_REF| Numerically orthorhombic:                                         YES

 *******************************************************************************
 *******************************************************************************
 **                                                                           **
 **     #####                         ##              ##                      **
 **    ##   ##            ##          ##              ##                      **
 **   ##     ##                       ##            ######                    **
 **   ##     ##  ##   ##  ##   #####  ##  ##   ####   ##    #####    #####    **
 **   ##     ##  ##   ##  ##  ##      ## ##   ##      ##   ##   ##  ##   ##   **
 **   ##  ## ##  ##   ##  ##  ##      ####     ###    ##   ######   ######    **
 **    ##  ###   ##   ##  ##  ##      ## ##      ##   ##   ##       ##        **
 **     #######   #####   ##   #####  ##  ##  ####    ##    #####   ##        **
 **           ##                                                    ##        **
 **                                                                           **
 **                                                ... make the atoms dance   **
 **                                                                           **
 **            Copyright (C) by CP2K developers group (2000 - 2018)           **
 **                                                                           **
 *******************************************************************************

 DFT| Spin unrestricted (spin-polarized) Kohn-Sham calculation               UKS
 DFT| Multiplicity                                                             1
 DFT| Number of spin states                                                    2
 DFT| Charge                                                                   0
 DFT| Self-interaction correction (SIC)                                       NO
 DFT| Cutoffs: density                                              1.000000E-10
 DFT|          gradient                                             1.000000E-10
 DFT|          tau                                                  1.000000E-10
 DFT|          cutoff_smoothing_range                               0.000000E+00
 DFT| XC density smoothing                                                  NONE
 DFT| XC derivatives                                                          PW
 FUNCTIONAL| ROUTINE=NEW
 FUNCTIONAL| PBE:
 FUNCTIONAL| J.P.Perdew, K.Burke, M.Ernzerhof, Phys. Rev. Letter, vol. 77, n 18,
 FUNCTIONAL|  pp. 3865-3868, (1996){spin polarized}                             
 vdW POTENTIAL|                                                   Pair Potential
 vdW POTENTIAL|          DFT-D3 (Version 3.1)
 vdW POTENTIAL|          Potential Form: S. Grimme et al, JCP 132: 154104 (2010)
 vdW POTENTIAL|          Zero Damping
 vdW POTENTIAL|          Cutoff Radius [Bohr]:                             18.90
 vdW POTENTIAL|          s6 Scaling Factor:                               1.0000
 vdW POTENTIAL|          sr6 Scaling Factor:                              1.2170
 vdW POTENTIAL|          s8 Scaling Factor:                               0.7220
 vdW POTENTIAL|          Cutoff for CN calculation:                   0.1000E-05

 QS| Method:                                                                 GPW
 QS| Density plane wave grid type                        NON-SPHERICAL FULLSPACE
 QS| Number of grid levels:                                                    5
 QS| Density cutoff [a.u.]:                                                150.0
 QS| Multi grid cutoff [a.u.]: 1) grid level                               150.0
 QS|                           2) grid level                                50.0
 QS|                           3) grid level                                16.7
 QS|                           4) grid level                                 5.6
 QS|                           5) grid level                                 1.9
 QS| Grid level progression factor:                                          3.0
 QS| Relative density cutoff [a.u.]:                                        20.0
 QS| Consistent realspace mapping and integration 
 QS| Interaction thresholds: eps_pgf_orb:                                1.0E-07
 QS|                         eps_filter_matrix:                          0.0E+00
 QS|                         eps_core_charge:                            1.0E-16
 QS|                         eps_rho_gspace:                             1.0E-14
 QS|                         eps_rho_rspace:                             1.0E-14
 QS|                         eps_gvg_rspace:                             1.0E-07
 QS|                         eps_ppl:                                    1.0E-02
 QS|                         eps_ppnl:                                   1.0E-09


 ATOMIC KIND INFORMATION

  1. Atomic kind: O                                     Number of atoms:       2

     Orbital Basis Set                                     DZVP-MOLOPT-SR-GTH-q6

       Number of orbital shell sets:                                           1
       Number of orbital shells:                                               5
       Number of primitive Cartesian functions:                                5
       Number of Cartesian basis functions:                                   14
       Number of spherical basis functions:                                   13
       Norm type:                                                              2

       Normalised Cartesian orbitals:

                        Set   Shell   Orbital            Exponent    Coefficient

                          1       1    2s               10.389228       0.396646
                                                         3.849621       0.208811
                                                         1.388401      -0.301641
                                                         0.496955      -0.274061
                                                         0.162492      -0.033677

                          1       2    3s               10.389228       0.303673
                                                         3.849621       0.240943
                                                         1.388401      -0.313066
                                                         0.496955      -0.043055
                                                         0.162492       0.213991

                          1       3    3px              10.389228      -1.530415
                                                         3.849621      -1.371928
                                                         1.388401      -0.761951
                                                         0.496955      -0.253695
                                                         0.162492      -0.035541
                          1       3    3py              10.389228      -1.530415
                                                         3.849621      -1.371928
                                                         1.388401      -0.761951
                                                         0.496955      -0.253695
                                                         0.162492      -0.035541
                          1       3    3pz              10.389228      -1.530415
                                                         3.849621      -1.371928
                                                         1.388401      -0.761951
                                                         0.496955      -0.253695
                                                         0.162492      -0.035541

                          1       4    4px              10.389228      -0.565392
                                                         3.849621      -0.038231
                                                         1.388401      -0.382373
                                                         0.496955       0.179070
                                                         0.162492       0.122714
                          1       4    4py              10.389228      -0.565392
                                                         3.849621      -0.038231
                                                         1.388401      -0.382373
                                                         0.496955       0.179070
                                                         0.162492       0.122714
                          1       4    4pz              10.389228      -0.565392
                                                         3.849621      -0.038231
                                                         1.388401      -0.382373
                                                         0.496955       0.179070
                                                         0.162492       0.122714

                          1       5    4dx2             10.389228       1.867377
                                                         3.849621       0.670994
                                                         1.388401       1.353441
                                                         0.496955       0.273538
                                                         0.162492       0.006620
                          1       5    4dxy             10.389228       3.234392
                                                         3.849621       1.162195
                                                         1.388401       2.344229
                                                         0.496955       0.473781
                                                         0.162492       0.011466
                          1       5    4dxz             10.389228       3.234392
                                                         3.849621       1.162195
                                                         1.388401       2.344229
                                                         0.496955       0.473781
                                                         0.162492       0.011466
                          1       5    4dy2             10.389228       1.867377
                                                         3.849621       0.670994
                                                         1.388401       1.353441
                                                         0.496955       0.273538
                                                         0.162492       0.006620
                          1       5    4dyz             10.389228       3.234392
                                                         3.849621       1.162195
                                                         1.388401       2.344229
                                                         0.496955       0.473781
                                                         0.162492       0.011466
                          1       5    4dz2             10.389228       1.867377
                                                         3.849621       0.670994
                                                         1.388401       1.353441
                                                         0.496955       0.273538
                                                         0.162492       0.006620

     GTH Potential information for                                    GTH-PBE-q6

       Description:                       Goedecker-Teter-Hutter pseudopotential
                                           Goedecker et al., PRB 54, 1703 (1996)
                                          Hartwigsen et al., PRB 58, 3641 (1998)
                                                      Krack, TCA 114, 145 (2005)

       Gaussian exponent of the core charge distribution:               8.360253
       Electronic configuration (s p d ...):                               2   4

       Parameters of the local part of the GTH pseudopotential:

                          rloc        C1          C2          C3          C4
                        0.244554  -16.667215    2.487311

       Parameters of the non-local part of the GTH pseudopotential:

                   l      r(l)      h(i,j,l)

                   0    0.220956   18.337458
                   1    0.211332

  2. Atomic kind: H                                     Number of atoms:       4

     Orbital Basis Set                                     DZVP-MOLOPT-SR-GTH-q1

       Number of orbital shell sets:                                           1
       Number of orbital shells:                                               3
       Number of primitive Cartesian functions:                                5
       Number of Cartesian basis functions:                                    5
       Number of spherical basis functions:                                    5
       Norm type:                                                              2

       Normalised Cartesian orbitals:

                        Set   Shell   Orbital            Exponent    Coefficient

                          1       1    2s               10.068468      -0.133023
                                                         2.680223      -0.177618
                                                         0.791502      -0.258419
                                                         0.239116      -0.107525
                                                         0.082193      -0.014019

                          1       2    3s               10.068468       0.344673
                                                         2.680223       1.819821
                                                         0.791502      -0.999069
                                                         0.239116       0.017430
                                                         0.082193       0.082660

                          1       3    3px              10.068468       0.155326
                                                         2.680223       0.367157
                                                         0.791502       0.311480
                                                         0.239116       0.080105
                                                         0.082193       0.033440
                          1       3    3py              10.068468       0.155326
                                                         2.680223       0.367157
                                                         0.791502       0.311480
                                                         0.239116       0.080105
                                                         0.082193       0.033440
                          1       3    3pz              10.068468       0.155326
                                                         2.680223       0.367157
                                                         0.791502       0.311480
                                                         0.239116       0.080105
                                                         0.082193       0.033440

     GTH Potential information for                                    GTH-PBE-q1

       Description:                       Goedecker-Teter-Hutter pseudopotential
                                           Goedecker et al., PRB 54, 1703 (1996)
                                          Hartwigsen et al., PRB 58, 3641 (1998)
                                                      Krack, TCA 114, 145 (2005)

       Gaussian exponent of the core charge distribution:              12.500000
       Electronic configuration (s p d ...):                                   1

       Parameters of the local part of the GTH pseudopotential:

                          rloc        C1          C2          C3          C4
                        0.200000   -4.178900    0.724463


 MOLECULE KIND INFORMATION


 All atoms are their own molecule, skipping detailed information


 TOTAL NUMBERS AND MAXIMUM NUMBERS

  Total number of            - Atomic kinds:                                   2
                             - Atoms:                                          6
                             - Shell sets:                                     6
                             - Shells:                                        22
                             - Primitive Cartesian functions:                 30
                             - Cartesian basis functions:                     48
                             - Spherical basis functions:                     46

  Maximum angular momentum of- Orbital basis functions:                        2
                             - Local part of the GTH pseudopotential:          2
                             - Non-local part of the GTH pseudopotential:      0


 MODULE QUICKSTEP:  ATOMIC COORDINATES IN angstrom

  Atom  Kind  Element       X           Y           Z          Z(eff)       Mass

       1     1 O    8   -1.267116   -0.125034    0.038254      6.00      15.9994
       2     2 H    1   -1.653638    0.801982   -0.045907      1.00       1.0079
       3     2 H    1   -0.494122   -0.118803   -0.631162      1.00       1.0079
       4     1 O    8    1.267174    0.125070   -0.038102      6.00      15.9994
       5     2 H    1    0.493428    0.118481    0.630375      1.00       1.0079
       6     2 H    1    1.653868   -0.801947    0.045474      1.00       1.0079




 SCF PARAMETERS         Density guess:                                    ATOMIC
                        --------------------------------------------------------
                        max_scf:                                              80
                        max_scf_history:                                       0
                        max_diis:                                              4
                        --------------------------------------------------------
                        eps_scf:                                        5.00E-06
                        eps_scf_history:                                0.00E+00
                        eps_diis:                                       1.00E-01
                        eps_eigval:                                     1.00E-05
                        --------------------------------------------------------
                        level_shift [a.u.]:                                 0.00
                        --------------------------------------------------------
                        Outer loop SCF in use 
                        No variables optimised in outer loop
                        eps_scf                                         5.00E-06
                        max_scf                                                4
                        No outer loop optimization
                        step_size                                       5.00E-01

 PW_GRID| Information for grid number                                          1
 PW_GRID| Grid distributed over                                    40 processors
 PW_GRID| Real space group dimensions                                    40    1
 PW_GRID| the grid is blocked:                                                NO
 PW_GRID| Cutoff [a.u.]                                                    150.0
 PW_GRID| spherical cutoff:                                                   NO
 PW_GRID|   Bounds   1            -27      26                Points:          54
 PW_GRID|   Bounds   2            -27      26                Points:          54
 PW_GRID|   Bounds   3            -27      26                Points:          54
 PW_GRID| Volume element (a.u.^3)  0.5357E-02     Volume (a.u.^3)       843.5418
 PW_GRID| Grid span                                                    FULLSPACE
 PW_GRID|   Distribution                         Average         Max         Min
 PW_GRID|   G-Vectors                             3936.6        3942        3888
 PW_GRID|   G-Rays                                  72.9          73          72
 PW_GRID|   Real Space Points                     3936.6        5832        2916

 PW_GRID| Information for grid number                                          2
 PW_GRID| Grid distributed over                                    40 processors
 PW_GRID| Real space group dimensions                                     5    8
 PW_GRID| the grid is blocked:                                                NO
 PW_GRID| Cutoff [a.u.]                                                     50.0
 PW_GRID| spherical cutoff:                                                   NO
 PW_GRID|   Bounds   1            -16      15                Points:          32
 PW_GRID|   Bounds   2            -16      15                Points:          32
 PW_GRID|   Bounds   3            -16      15                Points:          32
 PW_GRID| Volume element (a.u.^3)  0.2574E-01     Volume (a.u.^3)       843.5418
 PW_GRID| Grid span                                                    FULLSPACE
 PW_GRID|   Distribution                         Average         Max         Min
 PW_GRID|   G-Vectors                              819.2         896         768
 PW_GRID|   G-Rays                                  25.6          28          24
 PW_GRID|   Real Space Points                      819.2         896         768

 PW_GRID| Information for grid number                                          3
 PW_GRID| Grid distributed over                                    40 processors
 PW_GRID| Real space group dimensions                                     5    8
 PW_GRID| the grid is blocked:                                                NO
 PW_GRID| Cutoff [a.u.]                                                     16.7
 PW_GRID| spherical cutoff:                                                   NO
 PW_GRID|   Bounds   1             -9       8                Points:          18
 PW_GRID|   Bounds   2             -9       8                Points:          18
 PW_GRID|   Bounds   3             -9       8                Points:          18
 PW_GRID| Volume element (a.u.^3)  0.1446         Volume (a.u.^3)       843.5418
 PW_GRID| Grid span                                                    FULLSPACE
 PW_GRID|   Distribution                         Average         Max         Min
 PW_GRID|   G-Vectors                              145.8         180         126
 PW_GRID|   G-Rays                                   8.1          10           7
 PW_GRID|   Real Space Points                      145.8         216         108

 PW_GRID| Information for grid number                                          4
 PW_GRID| Grid distributed over                                    40 processors
 PW_GRID| Real space group dimensions                                     5    8
 PW_GRID| the grid is blocked:                                                NO
 PW_GRID| Cutoff [a.u.]                                                      5.6
 PW_GRID| spherical cutoff:                                                   NO
 PW_GRID|   Bounds   1             -6       5                Points:          12
 PW_GRID|   Bounds   2             -6       5                Points:          12
 PW_GRID|   Bounds   3             -6       5                Points:          12
 PW_GRID| Volume element (a.u.^3)  0.4882         Volume (a.u.^3)       843.5418
 PW_GRID| Grid span                                                    FULLSPACE
 PW_GRID|   Distribution                         Average         Max         Min
 PW_GRID|   G-Vectors                               43.2          60          36
 PW_GRID|   G-Rays                                   3.6           5           3
 PW_GRID|   Real Space Points                       43.2          72          24

 PW_GRID| Information for grid number                                          5
 PW_GRID| Grid distributed over                                    40 processors
 PW_GRID| Real space group dimensions                                     5    8
 PW_GRID| the grid is blocked:                                                NO
 PW_GRID| Cutoff [a.u.]                                                      1.9
 PW_GRID| spherical cutoff:                                                   NO
 PW_GRID|   Bounds   1             -3       2                Points:           6
 PW_GRID|   Bounds   2             -3       2                Points:           6
 PW_GRID|   Bounds   3             -3       2                Points:           6
 PW_GRID| Volume element (a.u.^3)   3.905         Volume (a.u.^3)       843.5418
 PW_GRID| Grid span                                                    FULLSPACE
 PW_GRID|   Distribution                         Average         Max         Min
 PW_GRID|   G-Vectors                                5.4          12           0
 PW_GRID|   G-Rays                                   0.9           2           0
 PW_GRID|   Real Space Points                        5.4          12           0

 POISSON| Solver                                                        PERIODIC
 POISSON| Periodicity                                                        XYZ

 RS_GRID| Information for grid number                                          1
 RS_GRID|   Bounds   1            -27      26                Points:          54
 RS_GRID|   Bounds   2            -27      26                Points:          54
 RS_GRID|   Bounds   3            -27      26                Points:          54
 RS_GRID| Real space fully replicated
 RS_GRID| Group size                                                           1

 RS_GRID| Information for grid number                                          2
 RS_GRID|   Bounds   1            -16      15                Points:          32
 RS_GRID|   Bounds   2            -16      15                Points:          32
 RS_GRID|   Bounds   3            -16      15                Points:          32
 RS_GRID| Real space fully replicated
 RS_GRID| Group size                                                           1

 RS_GRID| Information for grid number                                          3
 RS_GRID|   Bounds   1             -9       8                Points:          18
 RS_GRID|   Bounds   2             -9       8                Points:          18
 RS_GRID|   Bounds   3             -9       8                Points:          18
 RS_GRID| Real space fully replicated
 RS_GRID| Group size                                                           1

 RS_GRID| Information for grid number                                          4
 RS_GRID|   Bounds   1             -6       5                Points:          12
 RS_GRID|   Bounds   2             -6       5                Points:          12
 RS_GRID|   Bounds   3             -6       5                Points:          12
 RS_GRID| Real space fully replicated
 RS_GRID| Group size                                                           1

 RS_GRID| Information for grid number                                          5
 RS_GRID|   Bounds   1             -3       2                Points:           6
 RS_GRID|   Bounds   2             -3       2                Points:           6
 RS_GRID|   Bounds   3             -3       2                Points:           6
 RS_GRID| Real space fully replicated
 RS_GRID| Group size                                                           1

 BFGS| Use rational function optimization for step estimation:                NO
 BFGS| Use model Hessian for initial guess:                                  YES
 BFGS| Restart Hessian:                                                       NO
 BFGS| Trust radius:                                                       0.472

 *******************************************************************************
 ***                     STARTING GEOMETRY OPTIMIZATION                      ***
 ***                                   BFGS                                  ***
 *******************************************************************************

 Spin 1

 Number of electrons:                                                          8
 Number of occupied orbitals:                                                  8
 Number of molecular orbitals:                                                 8

 Spin 2

 Number of electrons:                                                          8
 Number of occupied orbitals:                                                  8
 Number of molecular orbitals:                                                 8

 Number of orbital functions:                                                 46
 Number of independent orbital functions:                                     46

 Extrapolation method: initial_guess

 Atomic guess: The first density matrix is obtained in terms of atomic orbitals
               and electronic configurations assigned to each atomic kind

 Guess for atomic kind: O

 Electronic structure
    Total number of core electrons                                          2.00
    Total number of valence electrons                                       6.00
    Total number of electrons                                               8.00
    Multiplicity                                                   not specified
    S   [  2.00] 2.00
    P      4.00
 

 *******************************************************************************
                  Iteration          Convergence                     Energy [au]
 *******************************************************************************
                          1        0.702811                     -15.577904332270
                          2        0.612408                     -15.588447180504
                          3        0.955344E-02                 -15.655871208406
                          4        0.223754E-02                 -15.655885053552
                          5        0.157183E-02                 -15.655885461027
                          6        0.124953E-02                 -15.655885607150
                          7        0.312011E-06                 -15.655885858066

 Energy components [Hartree]           Total Energy ::          -15.655885858066
                                        Band Energy ::           -2.983128125584
                                     Kinetic Energy ::           11.754765134683
                                   Potential Energy ::          -27.410650992750
                                      Virial (-V/T) ::            2.331875684345
                                        Core Energy ::          -26.153522949072
                                          XC Energy ::           -3.157392363346
                                     Coulomb Energy ::           13.655029454351
                       Total Pseudopotential Energy ::          -37.943026860963
                       Local Pseudopotential Energy ::          -39.220419683052
                    Nonlocal Pseudopotential Energy ::            1.277392822089
                                        Confinement ::            0.347387772086

 Orbital energies  State     L     Occupation   Energy[a.u.]          Energy[eV]

                       1     0          2.000      -0.861522          -23.443215
 
                       1     1          4.000      -0.315021           -8.572154
 

 Total Electron Density at R=0:                                         0.000093

 Guess for atomic kind: H

 Electronic structure
    Total number of core electrons                                          0.00
    Total number of valence electrons                                       1.00
    Total number of electrons                                               1.00
    Multiplicity                                                   not specified
    S      1.00
 

 *******************************************************************************
                  Iteration          Convergence                     Energy [au]
 *******************************************************************************
                          1        0.250972E-02                  -0.375256815885
                          2        0.570752E-04                  -0.375258666164
                          3        0.832405E-09                  -0.375258667122

 Energy components [Hartree]           Total Energy ::           -0.375258667122
                                        Band Energy ::           -0.076317618391
                                     Kinetic Energy ::            0.771356566341
                                   Potential Energy ::           -1.146615233463
                                      Virial (-V/T) ::            1.486491829455
                                        Core Energy ::           -0.456090715790
                                          XC Energy ::           -0.314218627334
                                     Coulomb Energy ::            0.395050676003
                       Total Pseudopotential Energy ::           -1.238482237174
                       Local Pseudopotential Energy ::           -1.238482237174
                    Nonlocal Pseudopotential Energy ::            0.000000000000
                                        Confinement ::            0.110349550431

 Orbital energies  State     L     Occupation   Energy[a.u.]          Energy[eV]

                       1     0          1.000      -0.076318           -2.076708
 

 Total Electron Density at R=0:                                         0.425022

 Spin 1
 Re-scaling the density matrix to get the right number of electrons for spin 1
                  # Electrons              Trace(P)               Scaling factor
                            8                 8.004                        0.999

 Spin 2
 Re-scaling the density matrix to get the right number of electrons for spin 2
                  # Electrons              Trace(P)               Scaling factor
                            8                 8.004                        0.999


 SCF WAVEFUNCTION OPTIMIZATION

  ----------------------------------- OT ---------------------------------------
  Minimizer      : CG                  : conjugate gradient
  Preconditioner : FULL_ALL            : diagonalization, state selective
  Precond_solver : DEFAULT
  Line search    : 2PNT                : 2 energies, one gradient
  stepsize       :    0.15000000                  energy_gap     :    0.08000000
  eps_taylor     :   0.10000E-15                  max_taylor     :             4
  ----------------------------------- OT ---------------------------------------

  Step     Update method      Time    Convergence         Total energy    Change
  ------------------------------------------------------------------------------
     1 OT CG       0.15E+00    0.8     0.12961377       -32.9509327449 -3.30E+01
     2 OT LS       0.17E+00    0.2                      -33.9683241432
     3 OT CG       0.17E+00    0.5     0.08558000       -33.9442626047 -9.93E-01
     4 OT LS       0.93E-01    0.2                      -34.0142824490
     5 OT CG       0.93E-01    0.4     0.06860986       -34.1411853936 -1.97E-01
     6 OT LS       0.13E+00    0.2                      -34.3448528101
     7 OT CG       0.13E+00    0.4     0.03087560       -34.3476454973 -2.06E-01
     8 OT LS       0.12E+00    0.3                      -34.3758432356
     9 OT CG       0.12E+00    0.4     0.02366218       -34.3761024911 -2.85E-02
    10 OT LS       0.94E-01    0.2                      -34.3942320934
    11 OT CG       0.94E-01    0.4     0.00995657       -34.3953048661 -1.92E-02
    12 OT LS       0.14E+00    0.2                      -34.3998883058
    13 OT CG       0.14E+00    0.5     0.00621530       -34.4005038816 -5.20E-03
    14 OT LS       0.24E+00    0.3                      -34.4033538712
    15 OT CG       0.24E+00    0.4     0.00324334       -34.4038953417 -3.39E-03
    16 OT LS       0.14E+00    0.2                      -34.4041399632
    17 OT CG       0.14E+00    0.4     0.00198928       -34.4044205403 -5.25E-04
    18 OT LS       0.12E+00    0.2                      -34.4045885251
    19 OT CG       0.12E+00    0.4     0.00081310       -34.4045925814 -1.72E-04
    20 OT LS       0.24E+00    0.2                      -34.4046361535
    21 OT CG       0.24E+00    0.4     0.00054200       -34.4046518258 -5.92E-05
    22 OT LS       0.14E+00    0.2                      -34.4046602030
    23 OT CG       0.14E+00    0.4     0.00031904       -34.4046674651 -1.56E-05
    24 OT LS       0.12E+00    0.2                      -34.4046717798
    25 OT CG       0.12E+00    0.4     0.00015887       -34.4046719678 -4.50E-06
    26 OT LS       0.21E+00    0.2                      -34.4046735510
    27 OT CG       0.21E+00    0.4     0.00008230       -34.4046738859 -1.92E-06
    28 OT LS       0.17E+00    0.2                      -34.4046742862
    29 OT CG       0.17E+00    0.4     0.00005456       -34.4046743071 -4.21E-07
    30 OT LS       0.11E+00    0.3                      -34.4046744007
    31 OT CG       0.11E+00    0.4     0.00002449       -34.4046744309 -1.24E-07
    32 OT LS       0.19E+00    0.2                      -34.4046744658
    33 OT CG       0.19E+00    0.4     0.00001379       -34.4046744723 -4.14E-08
    34 OT LS       0.19E+00    0.2                      -34.4046744857
    35 OT CG       0.19E+00    0.4     0.00000839       -34.4046744857 -1.34E-08
    36 OT LS       0.11E+00    0.2                      -34.4046744867
    37 OT CG       0.11E+00    0.4     0.00000420       -34.4046744884 -2.77E-09

  *** SCF run converged in    37 steps ***


  Electronic density on regular grids:        -16.0000001558       -0.0000001558
  Core density on regular grids:               16.0000000000       -0.0000000000
  Total charge density on r-space grids:       -0.0000001558
  Total charge density g-space grids:          -0.0000001558

  Overlap energy of the core charge distribution:               0.00000001634045
  Self energy of the core charge distribution:                -88.69430999347530
  Core Hamiltonian energy:                                     25.84509116051800
  Hartree energy:                                              36.90791030149740
  Exchange-correlation energy:                                 -8.46082916996691
  Dispersion energy:                                           -0.00253680335365

  Total energy:                                               -34.40467448844001

  outer SCF iter =    1 RMS gradient =   0.42E-05 energy =        -34.4046744884
  outer SCF loop converged in   1 iterations or   37 steps


  Integrated absolute spin density  :                               0.0000000000
  Ideal and single determinant S**2 :                    0.000000       0.000000

 !-----------------------------------------------------------------------------!
                     Mulliken Population Analysis

 #  Atom  Element  Kind  Atomic population (alpha,beta) Net charge  Spin moment
       1     O        1         3.166493     3.166493    -0.332986    -0.000000
       2     H        2         0.415106     0.415106     0.169788    -0.000000
       3     H        2         0.418348     0.418348     0.163304     0.000000
       4     O        1         3.166548     3.166548    -0.333096     0.000000
       5     H        2         0.418387     0.418387     0.163226    -0.000000
       6     H        2         0.415118     0.415118     0.169763     0.000000
 # Total charge and spin        8.000000     8.000000     0.000000     0.000000

 !-----------------------------------------------------------------------------!

 !-----------------------------------------------------------------------------!
                           Hirshfeld Charges

  #Atom  Element  Kind  Ref Charge     Population       Spin moment  Net charge
      1       O      1       6.000    3.573   3.573           -0.000     -1.145
      2       H      2       1.000    0.215   0.215           -0.000      0.570
      3       H      2       1.000    0.212   0.212            0.000      0.575
      4       O      1       6.000    3.573   3.573            0.000     -1.145
      5       H      2       1.000    0.212   0.212           -0.000      0.575
      6       H      2       1.000    0.215   0.215            0.000      0.570

  Total Charge                                                            0.001
 !-----------------------------------------------------------------------------!

 ENERGY| Total FORCE_EVAL ( QS ) energy (a.u.):              -34.404674489454273


 --------  Informations at step =     0 ------------
  Optimization Method        =                 BFGS
  Total Energy               =       -34.4046744895
  Used time                  =               14.168
 ---------------------------------------------------

 --------------------------
 OPTIMIZATION STEP:      1
 --------------------------

 Spin 1

 Number of electrons:                                                          8
 Number of occupied orbitals:                                                  8
 Number of molecular orbitals:                                                 8

 Spin 2

 Number of electrons:                                                          8
 Number of occupied orbitals:                                                  8
 Number of molecular orbitals:                                                 8

 Number of orbital functions:                                                 46
 Number of independent orbital functions:                                     46

 Parameters for the always stable predictor-corrector (ASPC) method:

  ASPC order: 0

  B(1) =   1.000000

 Parameters for the always stable predictor-corrector (ASPC) method:

  ASPC order: 0

  B(1) =   1.000000

 Extrapolation method: ASPC


 SCF WAVEFUNCTION OPTIMIZATION

  ----------------------------------- OT ---------------------------------------
  Minimizer      : CG                  : conjugate gradient
  Preconditioner : FULL_ALL            : diagonalization, state selective
  Precond_solver : DEFAULT
  Line search    : 2PNT                : 2 energies, one gradient
  stepsize       :    0.15000000                  energy_gap     :    0.08000000
  eps_taylor     :   0.10000E-15                  max_taylor     :             4
  ----------------------------------- OT ---------------------------------------

  Step     Update method      Time    Convergence         Total energy    Change
  ------------------------------------------------------------------------------
     1 OT CG       0.15E+00    0.3     0.00410659       -34.4111620710 -3.44E+01
     2 OT LS       0.39E+00    0.2                      -34.4126616029
     3 OT CG       0.39E+00    0.4     0.00192508       -34.4135576347 -2.40E-03
     4 OT LS       0.24E+00    0.2                      -34.4137583525
     5 OT CG       0.24E+00    0.4     0.00020485       -34.4138834013 -3.26E-04
     6 OT LS       0.35E+00    0.2                      -34.4138882584
     7 OT CG       0.35E+00    0.3     0.00002514       -34.4138888165 -5.42E-06
     8 OT LS       0.42E+00    0.2                      -34.4138889119
     9 OT CG       0.42E+00    0.3     0.00000354       -34.4138889147 -9.82E-08

  *** SCF run converged in     9 steps ***


  Electronic density on regular grids:        -16.0000000873       -0.0000000873
  Core density on regular grids:               16.0000000000        0.0000000000
  Total charge density on r-space grids:       -0.0000000873
  Total charge density g-space grids:          -0.0000000873

  Overlap energy of the core charge distribution:               0.00000005648597
  Self energy of the core charge distribution:                -88.69430999347530
  Core Hamiltonian energy:                                     26.02426482780754
  Hartree energy:                                              36.77287767058492
  Exchange-correlation energy:                                 -8.51416844672391
  Dispersion energy:                                           -0.00255302934929

  Total energy:                                               -34.41388891467006

  outer SCF iter =    1 RMS gradient =   0.35E-05 energy =        -34.4138889147
  outer SCF loop converged in   1 iterations or    9 steps


  Integrated absolute spin density  :                               0.0000000000
  Ideal and single determinant S**2 :                    0.000000      -0.000000

 !-----------------------------------------------------------------------------!
                     Mulliken Population Analysis

 #  Atom  Element  Kind  Atomic population (alpha,beta) Net charge  Spin moment
       1     O        1         3.149318     3.149318    -0.298635    -0.000000
       2     H        2         0.422856     0.422856     0.154287     0.000000
       3     H        2         0.427766     0.427766     0.144468    -0.000000
       4     O        1         3.149379     3.149379    -0.298758    -0.000000
       5     H        2         0.427806     0.427806     0.144388    -0.000000
       6     H        2         0.422875     0.422875     0.154250    -0.000000
 # Total charge and spin        8.000000     8.000000    -0.000000    -0.000000

 !-----------------------------------------------------------------------------!

 !-----------------------------------------------------------------------------!
                           Hirshfeld Charges

  #Atom  Element  Kind  Ref Charge     Population       Spin moment  Net charge
      1       O      1       6.000    3.567   3.567           -0.000     -1.134
      2       H      2       1.000    0.217   0.217            0.000      0.567
      3       H      2       1.000    0.216   0.216           -0.000      0.568
      4       O      1       6.000    3.567   3.567           -0.000     -1.135
      5       H      2       1.000    0.216   0.216           -0.000      0.568
      6       H      2       1.000    0.217   0.217           -0.000      0.567

  Total Charge                                                            0.001
 !-----------------------------------------------------------------------------!

 ENERGY| Total FORCE_EVAL ( QS ) energy (a.u.):              -34.413888915961053


 --------  Informations at step =     1 ------------
  Optimization Method        =                 BFGS
  Total Energy               =       -34.4138889160
  Real energy change         =        -0.0092144265
  Predicted change in energy =        -0.0070268114
  Scaling factor             =         0.0000000000
  Step size                  =         0.0918784568
  Trust radius               =         0.4724315332
  Decrease in energy         =                  YES
  Used time                  =                3.424

  Convergence check :
  Max. step size             =         0.0918784568
  Conv. limit for step size  =         0.0030000000
  Convergence in step size   =                   NO
  RMS step size              =         0.0485295675
  Conv. limit for RMS step   =         0.0015000000
  Convergence in RMS step    =                   NO
  Max. gradient              =         0.0150359326
  Conv. limit for gradients  =         0.0004500000
  Conv. for gradients        =                   NO
  RMS gradient               =         0.0089409736
  Conv. limit for RMS grad.  =         0.0003000000
  Conv. for gradients        =                   NO
 ---------------------------------------------------

 --------------------------
 OPTIMIZATION STEP:      2
 --------------------------

 Spin 1

 Number of electrons:                                                          8
 Number of occupied orbitals:                                                  8
 Number of molecular orbitals:                                                 8

 Spin 2

 Number of electrons:                                                          8
 Number of occupied orbitals:                                                  8
 Number of molecular orbitals:                                                 8

 Number of orbital functions:                                                 46
 Number of independent orbital functions:                                     46

 Parameters for the always stable predictor-corrector (ASPC) method:

  ASPC order: 0

  B(1) =   2.000000
  B(2) =  -1.000000

 Parameters for the always stable predictor-corrector (ASPC) method:

  ASPC order: 0

  B(1) =   2.000000
  B(2) =  -1.000000

 Extrapolation method: ASPC


 SCF WAVEFUNCTION OPTIMIZATION

  ----------------------------------- OT ---------------------------------------
  Minimizer      : CG                  : conjugate gradient
  Preconditioner : FULL_ALL            : diagonalization, state selective
  Precond_solver : DEFAULT
  Line search    : 2PNT                : 2 energies, one gradient
  stepsize       :    0.15000000                  energy_gap     :    0.08000000
  eps_taylor     :   0.10000E-15                  max_taylor     :             4
  ----------------------------------- OT ---------------------------------------

  Step     Update method      Time    Convergence         Total energy    Change
  ------------------------------------------------------------------------------
     1 OT CG       0.15E+00    0.2     0.00367411       -34.4146039305 -3.44E+01
     2 OT LS       0.49E+00    0.2                      -34.4158647893
     3 OT CG       0.49E+00    0.3     0.00057312       -34.4170215366 -2.42E-03
     4 OT LS       0.21E+00    0.2                      -34.4170014637
     5 OT CG       0.21E+00    0.3     0.00011161       -34.4170466345 -2.51E-05
     6 OT LS       0.33E+00    0.2                      -34.4170479326
     7 OT CG       0.33E+00    0.3     0.00001690       -34.4170481273 -1.49E-06
     8 OT LS       0.38E+00    0.2                      -34.4170481668
     9 OT CG       0.38E+00    0.3     0.00000353       -34.4170481677 -4.04E-08

  *** SCF run converged in     9 steps ***


  Electronic density on regular grids:        -16.0000001287       -0.0000001287
  Core density on regular grids:               16.0000000000       -0.0000000000
  Total charge density on r-space grids:       -0.0000001287
  Total charge density g-space grids:          -0.0000001287

  Overlap energy of the core charge distribution:               0.00000014346288
  Self energy of the core charge distribution:                -88.69430999347530
  Core Hamiltonian energy:                                     26.15247629932528
  Hartree energy:                                              36.67933791885007
  Exchange-correlation energy:                                 -8.55199452353852
  Dispersion energy:                                           -0.00255801234983

  Total energy:                                               -34.41704816772542

  outer SCF iter =    1 RMS gradient =   0.35E-05 energy =        -34.4170481677
  outer SCF loop converged in   1 iterations or    9 steps


  Integrated absolute spin density  :                               0.0000000000
  Ideal and single determinant S**2 :                    0.000000       0.000000

 !-----------------------------------------------------------------------------!
                     Mulliken Population Analysis

 #  Atom  Element  Kind  Atomic population (alpha,beta) Net charge  Spin moment
       1     O        1         3.134761     3.134761    -0.269522    -0.000000
       2     H        2         0.429952     0.429952     0.140097    -0.000000
       3     H        2         0.435228     0.435228     0.129543     0.000000
       4     O        1         3.134922     3.134922    -0.269844     0.000000
       5     H        2         0.435107     0.435107     0.129785     0.000000
       6     H        2         0.430030     0.430030     0.139941     0.000000
 # Total charge and spin        8.000000     8.000000     0.000000     0.000000

 !-----------------------------------------------------------------------------!

 !-----------------------------------------------------------------------------!
                           Hirshfeld Charges

  #Atom  Element  Kind  Ref Charge     Population       Spin moment  Net charge
      1       O      1       6.000    3.562   3.562           -0.000     -1.124
      2       H      2       1.000    0.218   0.218           -0.000      0.564
      3       H      2       1.000    0.220   0.220            0.000      0.561
      4       O      1       6.000    3.562   3.562            0.000     -1.124
      5       H      2       1.000    0.220   0.220            0.000      0.561
      6       H      2       1.000    0.218   0.218            0.000      0.564

  Total Charge                                                            0.001
 !-----------------------------------------------------------------------------!

 ENERGY| Total FORCE_EVAL ( QS ) energy (a.u.):              -34.417048168327533


 --------  Informations at step =     2 ------------
  Optimization Method        =                 BFGS
  Total Energy               =       -34.4170481683
  Real energy change         =        -0.0031592524
  Predicted change in energy =        -0.0026121111
  Scaling factor             =         0.0000000000
  Step size                  =         0.0899668340
  Trust radius               =         0.4724315332
  Decrease in energy         =                  YES
  Used time                  =                3.080

  Convergence check :
  Max. step size             =         0.0899668340
  Conv. limit for step size  =         0.0030000000
  Convergence in step size   =                   NO
  RMS step size              =         0.0519215727
  Conv. limit for RMS step   =         0.0015000000
  Convergence in RMS step    =                   NO
  Max. gradient              =         0.0117532462
  Conv. limit for gradients  =         0.0004500000
  Conv. for gradients        =                   NO
  RMS gradient               =         0.0067016004
  Conv. limit for RMS grad.  =         0.0003000000
  Conv. for gradients        =                   NO
 ---------------------------------------------------

 --------------------------
 OPTIMIZATION STEP:      3
 --------------------------

 Spin 1

 Number of electrons:                                                          8
 Number of occupied orbitals:                                                  8
 Number of molecular orbitals:                                                 8

 Spin 2

 Number of electrons:                                                          8
 Number of occupied orbitals:                                                  8
 Number of molecular orbitals:                                                 8

 Number of orbital functions:                                                 46
 Number of independent orbital functions:                                     46

 Parameters for the always stable predictor-corrector (ASPC) method:

  ASPC order: 1

  B(1) =   2.500000
  B(2) =  -2.000000
  B(3) =   0.500000

 Parameters for the always stable predictor-corrector (ASPC) method:

  ASPC order: 1

  B(1) =   2.500000
  B(2) =  -2.000000
  B(3) =   0.500000

 Extrapolation method: ASPC


 SCF WAVEFUNCTION OPTIMIZATION

  ----------------------------------- OT ---------------------------------------
  Minimizer      : CG                  : conjugate gradient
  Preconditioner : FULL_ALL            : diagonalization, state selective
  Precond_solver : DEFAULT
  Line search    : 2PNT                : 2 energies, one gradient
  stepsize       :    0.15000000                  energy_gap     :    0.08000000
  eps_taylor     :   0.10000E-15                  max_taylor     :             4
  ----------------------------------- OT ---------------------------------------

  Step     Update method      Time    Convergence         Total energy    Change
  ------------------------------------------------------------------------------
     1 OT CG       0.15E+00    0.2     0.00221444       -34.4204806930 -3.44E+01
     2 OT LS       0.47E+00    0.2                      -34.4209349845
     3 OT CG       0.47E+00    0.3     0.00047946       -34.4213219747 -8.41E-04
     4 OT LS       0.23E+00    0.2                      -34.4213222842
     5 OT CG       0.23E+00    0.3     0.00012752       -34.4213417649 -1.98E-05
     6 OT LS       0.29E+00    0.2                      -34.4213434215
     7 OT CG       0.29E+00    0.3     0.00001733       -34.4213434788 -1.71E-06
     8 OT LS       0.35E+00    0.2                      -34.4213435162
     9 OT CG       0.35E+00    0.3     0.00000507       -34.4213435174 -3.86E-08
    10 OT LS       0.23E+00    0.2                      -34.4213435191
    11 OT CG       0.23E+00    0.3     0.00000162       -34.4213435196 -2.21E-09

  *** SCF run converged in    11 steps ***


  Electronic density on regular grids:        -15.9999999045        0.0000000955
  Core density on regular grids:               16.0000000000        0.0000000000
  Total charge density on r-space grids:        0.0000000955
  Total charge density g-space grids:           0.0000000955

  Overlap energy of the core charge distribution:               0.00000019547674
  Self energy of the core charge distribution:                -88.69430999347530
  Core Hamiltonian energy:                                     26.16829049958415
  Hartree energy:                                              36.66581370675570
  Exchange-correlation energy:                                 -8.55857090885248
  Dispersion energy:                                           -0.00256701912161

  Total energy:                                               -34.42134351963281

  outer SCF iter =    1 RMS gradient =   0.16E-05 energy =        -34.4213435196
  outer SCF loop converged in   1 iterations or   11 steps


  Integrated absolute spin density  :                               0.0000000000
  Ideal and single determinant S**2 :                    0.000000       0.000000

 !-----------------------------------------------------------------------------!
                     Mulliken Population Analysis

 #  Atom  Element  Kind  Atomic population (alpha,beta) Net charge  Spin moment
       1     O        1         3.130630     3.130630    -0.261259     0.000000
       2     H        2         0.431912     0.431912     0.136176     0.000000
       3     H        2         0.437404     0.437404     0.125192     0.000000
       4     O        1         3.130786     3.130786    -0.261572    -0.000000
       5     H        2         0.437286     0.437286     0.125429    -0.000000
       6     H        2         0.431982     0.431982     0.136035     0.000000
 # Total charge and spin        8.000000     8.000000     0.000000     0.000000

 !-----------------------------------------------------------------------------!

 !-----------------------------------------------------------------------------!
                           Hirshfeld Charges

  #Atom  Element  Kind  Ref Charge     Population       Spin moment  Net charge
      1       O      1       6.000    3.561   3.561            0.000     -1.122
      2       H      2       1.000    0.218   0.218            0.000      0.565
      3       H      2       1.000    0.221   0.221            0.000      0.558
      4       O      1       6.000    3.561   3.561           -0.000     -1.122
      5       H      2       1.000    0.221   0.221           -0.000      0.558
      6       H      2       1.000    0.218   0.218            0.000      0.565

  Total Charge                                                            0.001
 !-----------------------------------------------------------------------------!

 ENERGY| Total FORCE_EVAL ( QS ) energy (a.u.):              -34.421343519887891


 --------  Informations at step =     3 ------------
  Optimization Method        =                 BFGS
  Total Energy               =       -34.4213435199
  Real energy change         =        -0.0042953516
  Predicted change in energy =        -0.0020471525
  Scaling factor             =         0.0000000000
  Step size                  =         0.1389421281
  Trust radius               =         0.4724315332
  Decrease in energy         =                  YES
  Used time                  =                3.549

  Convergence check :
  Max. step size             =         0.1389421281
  Conv. limit for step size  =         0.0030000000
  Convergence in step size   =                   NO
  RMS step size              =         0.0785070748
  Conv. limit for RMS step   =         0.0015000000
  Convergence in RMS step    =                   NO
  Max. gradient              =         0.0188979346
  Conv. limit for gradients  =         0.0004500000
  Conv. for gradients        =                   NO
  RMS gradient               =         0.0126941692
  Conv. limit for RMS grad.  =         0.0003000000
  Conv. for gradients        =                   NO
 ---------------------------------------------------

 --------------------------
 OPTIMIZATION STEP:      4
 --------------------------

  Step is scaled; Scaling factor =  0.00916

 Spin 1

 Number of electrons:                                                          8
 Number of occupied orbitals:                                                  8
 Number of molecular orbitals:                                                 8

 Spin 2

 Number of electrons:                                                          8
 Number of occupied orbitals:                                                  8
 Number of molecular orbitals:                                                 8

 Number of orbital functions:                                                 46
 Number of independent orbital functions:                                     46

 Parameters for the always stable predictor-corrector (ASPC) method:

  ASPC order: 2

  B(1) =   2.800000
  B(2) =  -2.800000
  B(3) =   1.200000
  B(4) =  -0.200000

 Parameters for the always stable predictor-corrector (ASPC) method:

  ASPC order: 2

  B(1) =   2.800000
  B(2) =  -2.800000
  B(3) =   1.200000
  B(4) =  -0.200000

 Extrapolation method: ASPC


 SCF WAVEFUNCTION OPTIMIZATION

  ----------------------------------- OT ---------------------------------------
  Minimizer      : CG                  : conjugate gradient
  Preconditioner : FULL_ALL            : diagonalization, state selective
  Precond_solver : DEFAULT
  Line search    : 2PNT                : 2 energies, one gradient
  stepsize       :    0.15000000                  energy_gap     :    0.08000000
  eps_taylor     :   0.10000E-15                  max_taylor     :             4
  ----------------------------------- OT ---------------------------------------

  Step     Update method      Time    Convergence         Total energy    Change
  ------------------------------------------------------------------------------
     1 OT CG       0.15E+00    0.2     0.00742096       -34.4201729803 -3.44E+01
     2 OT LS       0.48E+00    0.2                      -34.4253098072
     3 OT CG       0.48E+00    0.3     0.00140900       -34.4299804975 -9.81E-03
     4 OT LS       0.20E+00    0.2                      -34.4298437482
     5 OT CG       0.20E+00    0.3     0.00023912       -34.4301288341 -1.48E-04
     6 OT LS       0.31E+00    0.2                      -34.4301345908
     7 OT CG       0.31E+00    0.3     0.00003679       -34.4301353929 -6.56E-06
     8 OT LS       0.39E+00    0.2                      -34.4301355801
     9 OT CG       0.39E+00    0.3     0.00000747       -34.4301355884 -1.95E-07
    10 OT LS       0.30E+00    0.2                      -34.4301355940
    11 OT CG       0.30E+00    0.3     0.00000208       -34.4301355945 -6.17E-09

  *** SCF run converged in    11 steps ***


  Electronic density on regular grids:        -16.0000000122       -0.0000000122
  Core density on regular grids:               16.0000000000        0.0000000000
  Total charge density on r-space grids:       -0.0000000121
  Total charge density g-space grids:          -0.0000000121

  Overlap energy of the core charge distribution:               0.00000033500063
  Self energy of the core charge distribution:                -88.69430999347530
  Core Hamiltonian energy:                                     26.07865149412147
  Hartree energy:                                              36.72603589139067
  Exchange-correlation energy:                                 -8.53778557538283
  Dispersion energy:                                           -0.00272774619874

  Total energy:                                               -34.43013559454410

  outer SCF iter =    1 RMS gradient =   0.21E-05 energy =        -34.4301355945
  outer SCF loop converged in   1 iterations or   11 steps


  Integrated absolute spin density  :                               0.0000000000
  Ideal and single determinant S**2 :                    0.000000      -0.000000

 !-----------------------------------------------------------------------------!
                     Mulliken Population Analysis

 #  Atom  Element  Kind  Atomic population (alpha,beta) Net charge  Spin moment
       1     O        1         3.123513     3.123513    -0.247027    -0.000000
       2     H        2         0.432210     0.432210     0.135581    -0.000000
       3     H        2         0.444248     0.444248     0.111503    -0.000000
       4     O        1         3.123631     3.123631    -0.247261     0.000000
       5     H        2         0.444145     0.444145     0.111711     0.000000
       6     H        2         0.432254     0.432254     0.135493     0.000000
 # Total charge and spin        8.000000     8.000000    -0.000000     0.000000

 !-----------------------------------------------------------------------------!

 !-----------------------------------------------------------------------------!
                           Hirshfeld Charges

  #Atom  Element  Kind  Ref Charge     Population       Spin moment  Net charge
      1       O      1       6.000    3.564   3.564           -0.000     -1.128
      2       H      2       1.000    0.213   0.213           -0.000      0.575
      3       H      2       1.000    0.223   0.223           -0.000      0.554
      4       O      1       6.000    3.564   3.564            0.000     -1.128
      5       H      2       1.000    0.223   0.223            0.000      0.554
      6       H      2       1.000    0.213   0.213            0.000      0.575

  Total Charge                                                            0.001
 !-----------------------------------------------------------------------------!

 ENERGY| Total FORCE_EVAL ( QS ) energy (a.u.):              -34.430135594796063


 --------  Informations at step =     4 ------------
  Optimization Method        =                 BFGS
  Total Energy               =       -34.4301355948
  Real energy change         =        -0.0087920749
  Predicted change in energy =        -0.0139462065
  Scaling factor             =         0.0091573404
  Step size                  =         0.4724315332
  Trust radius               =         0.4724315332
  Decrease in energy         =                  YES
  Used time                  =                3.548

  Convergence check :
  Max. step size             =         0.4724315332
  Conv. limit for step size  =         0.0030000000
  Convergence in step size   =                   NO
  RMS step size              =         0.2664004362
  Conv. limit for RMS step   =         0.0015000000
  Convergence in RMS step    =                   NO
  Max. gradient              =         0.0476772973
  Conv. limit for gradients  =         0.0004500000
  Conv. for gradients        =                   NO
  RMS gradient               =         0.0286475108
  Conv. limit for RMS grad.  =         0.0003000000
  Conv. for gradients        =                   NO
 ---------------------------------------------------

 --------------------------
 OPTIMIZATION STEP:      5
 --------------------------

 Spin 1

 Number of electrons:                                                          8
 Number of occupied orbitals:                                                  8
 Number of molecular orbitals:                                                 8

 Spin 2

 Number of electrons:                                                          8
 Number of occupied orbitals:                                                  8
 Number of molecular orbitals:                                                 8

 Number of orbital functions:                                                 46
 Number of independent orbital functions:                                     46

 Parameters for the always stable predictor-corrector (ASPC) method:

  ASPC order: 3

  B(1) =   3.000000
  B(2) =  -3.428571
  B(3) =   1.928571
  B(4) =  -0.571429
  B(5) =   0.071429

 Parameters for the always stable predictor-corrector (ASPC) method:

  ASPC order: 3

  B(1) =   3.000000
  B(2) =  -3.428571
  B(3) =   1.928571
  B(4) =  -0.571429
  B(5) =   0.071429

 Extrapolation method: ASPC


 SCF WAVEFUNCTION OPTIMIZATION

  ----------------------------------- OT ---------------------------------------
  Minimizer      : CG                  : conjugate gradient
  Preconditioner : FULL_ALL            : diagonalization, state selective
  Precond_solver : DEFAULT
  Line search    : 2PNT                : 2 energies, one gradient
  stepsize       :    0.15000000                  energy_gap     :    0.08000000
  eps_taylor     :   0.10000E-15                  max_taylor     :             4
  ----------------------------------- OT ---------------------------------------

  Step     Update method      Time    Convergence         Total energy    Change
  ------------------------------------------------------------------------------
     1 OT CG       0.15E+00    0.2     0.01607967       -34.3872523633 -3.44E+01
     2 OT LS       0.48E+00    0.2                      -34.4113424624
     3 OT CG       0.48E+00    0.3     0.00294824       -34.4330652782 -4.58E-02
     4 OT LS       0.21E+00    0.2                      -34.4325569370
     5 OT CG       0.21E+00    0.3     0.00058764       -34.4337282770 -6.63E-04
     6 OT LS       0.30E+00    0.2                      -34.4337625312
     7 OT CG       0.30E+00    0.3     0.00009436       -34.4337660576 -3.78E-05
[...]

  ASPC order: 3

  B(1) =   3.000000
  B(2) =  -3.428571
  B(3) =   1.928571
  B(4) =  -0.571429
  B(5) =   0.071429

 Parameters for the always stable predictor-corrector (ASPC) method:

  ASPC order: 3

  B(1) =   3.000000
  B(2) =  -3.428571
  B(3) =   1.928571
  B(4) =  -0.571429
  B(5) =   0.071429

 Extrapolation method: ASPC


 SCF WAVEFUNCTION OPTIMIZATION

  ----------------------------------- OT ---------------------------------------
  Minimizer      : CG                  : conjugate gradient
  Preconditioner : FULL_ALL            : diagonalization, state selective
  Precond_solver : DEFAULT
  Line search    : 2PNT                : 2 energies, one gradient
  stepsize       :    0.15000000                  energy_gap     :    0.08000000
  eps_taylor     :   0.10000E-15                  max_taylor     :             4
  ----------------------------------- OT ---------------------------------------

  Step     Update method      Time    Convergence         Total energy    Change
  ------------------------------------------------------------------------------
     1 OT CG       0.15E+00    0.3     0.00015438       -34.4596388854 -3.45E+01
     2 OT LS       0.46E+00    0.2                      -34.4596410832
     3 OT CG       0.46E+00    0.3     0.00005442       -34.4596428792 -3.99E-06
     4 OT LS       0.20E+00    0.2                      -34.4596427213
     5 OT CG       0.20E+00    0.3     0.00000460       -34.4596430933 -2.14E-07

  *** SCF run converged in     5 steps ***


  Electronic density on regular grids:        -15.9999997664        0.0000002336
  Core density on regular grids:               15.9999999999       -0.0000000001
  Total charge density on r-space grids:        0.0000002335
  Total charge density g-space grids:           0.0000002335

  Overlap energy of the core charge distribution:               0.00000006638579
  Self energy of the core charge distribution:                -88.69430999347530
  Core Hamiltonian energy:                                     25.84961710330037
  Hartree energy:                                              36.86404186751207
  Exchange-correlation energy:                                 -8.47633469312376
  Dispersion energy:                                           -0.00265744385314

  Total energy:                                               -34.45964309325396

  outer SCF iter =    1 RMS gradient =   0.46E-05 energy =        -34.4596430933
  outer SCF loop converged in   1 iterations or    5 steps


  Integrated absolute spin density  :                               0.0000000000
  Ideal and single determinant S**2 :                    0.000000      -0.000000

 !-----------------------------------------------------------------------------!
                     Mulliken Population Analysis

 #  Atom  Element  Kind  Atomic population (alpha,beta) Net charge  Spin moment
       1     O        1         3.145390     3.145390    -0.290779     0.000000
       2     H        2         0.428243     0.428243     0.143514     0.000000
       3     H        2         0.433410     0.433410     0.133181     0.000000
       4     O        1         3.138123     3.138123    -0.276247     0.000000
       5     H        2         0.424529     0.424529     0.150942     0.000000
       6     H        2         0.430306     0.430306     0.139389     0.000000
 # Total charge and spin        8.000000     8.000000    -0.000000     0.000000

 !-----------------------------------------------------------------------------!

 !-----------------------------------------------------------------------------!
                           Hirshfeld Charges

  #Atom  Element  Kind  Ref Charge     Population       Spin moment  Net charge
      1       O      1       6.000    3.576   3.576            0.000     -1.151
      2       H      2       1.000    0.206   0.206            0.000      0.588
      3       H      2       1.000    0.219   0.219            0.000      0.562
      4       O      1       6.000    3.574   3.574            0.000     -1.147
      5       H      2       1.000    0.207   0.207            0.000      0.586
      6       H      2       1.000    0.218   0.218            0.000      0.564

  Total Charge                                                            0.001
 !-----------------------------------------------------------------------------!

 ENERGY| Total FORCE_EVAL ( QS ) energy (a.u.):              -34.459643093253959


 -------------------------------------------------------------------------------
 -                                                                             -
 -                                DBCSR STATISTICS                             -
 -                                                                             -
 -------------------------------------------------------------------------------
 COUNTER                                    TOTAL       BLAS       SMM       ACC
 flops     5 x     8 x     8              7598080     100.0%      0.0%      0.0%
 flops    10 x     8 x     5             13004800     100.0%      0.0%      0.0%
 flops     5 x     5 x     8             15072000     100.0%      0.0%      0.0%
 flops    10 x     8 x     8             15196160     100.0%      0.0%      0.0%
 flops     5 x    13 x     8             15674880     100.0%      0.0%      0.0%
 flops    13 x     5 x     8             15674880     100.0%      0.0%      0.0%
 flops    10 x     8 x    13             16906240     100.0%      0.0%      0.0%
 flops     8 x     8 x     8             18688000     100.0%      0.0%      0.0%
 flops     8 x     8 x     5             22246400     100.0%      0.0%      0.0%
 flops     8 x     8 x    13             28920320     100.0%      0.0%      0.0%
 flops    13 x    13 x     8             30566016     100.0%      0.0%      0.0%
 flops    31 x     8 x     5             40314880     100.0%      0.0%      0.0%
 flops    31 x     8 x     8             47108096     100.0%      0.0%      0.0%
 flops    31 x     8 x    13             52409344     100.0%      0.0%      0.0%
 flops     5 x     8 x     5             59462400     100.0%      0.0%      0.0%
 flops    13 x     8 x     5             68848000     100.0%      0.0%      0.0%
 flops     5 x     8 x    13             77301120     100.0%      0.0%      0.0%
 flops    13 x     8 x    13             89502400     100.0%      0.0%      0.0%
 flops inhomo. stacks                           0       0.0%      0.0%      0.0%
 flops total                       634.494016E+06     100.0%      0.0%      0.0%
 flops max/rank                    432.974176E+06     100.0%      0.0%      0.0%
 matmuls inhomo. stacks                         0       0.0%      0.0%      0.0%
 matmuls total                             556186     100.0%      0.0%      0.0%
 number of processed stacks                438046     100.0%      0.0%      0.0%
 average stack size                                     1.3       0.0       0.0
 marketing flops                   686.703040E+06
 -------------------------------------------------------------------------------
 # multiplications                          55213
 max memory usage/rank             269.623296E+06
 # max total images/rank                        5
 # max 3D layers                                1
 # MPI messages exchanged               139136760
 MPI messages size (bytes):
  total size                         3.406062E+09
  min size                           0.000000E+00
  max size                           3.224000E+03
  average size                      24.479954E+00
 MPI breakdown and total messages size (bytes):
             size <=      128           134505828                        0
       128 < size <=     8192             4630932               3404438496
      8192 < size <=    32768                   0                        0
     32768 < size <=   131072                   0                        0
    131072 < size <=  4194304                   0                        0
   4194304 < size <= 16777216                   0                        0
  16777216 < size                               0                        0
 -------------------------------------------------------------------------------

 *** WARNING in dbcsr/mm/dbcsr_mm.F:268 :: Using a non-square number of ***
 *** MPI ranks might lead to poor performance.                          ***
 *** Used ranks: 40                                                     ***
 *** Suggested: 36 81                                                   ***

 -------------------------------------------------------------------------------
 
 MEMORY| Estimated peak process memory [MiB]                                 258

 -------------------------------------------------------------------------------
 ----                             MULTIGRID INFO                            ----
 -------------------------------------------------------------------------------
 count for grid        1:         475151          cutoff [a.u.]          150.00
 count for grid        2:         277995          cutoff [a.u.]           50.00
 count for grid        3:         375258          cutoff [a.u.]           16.67
 count for grid        4:         241165          cutoff [a.u.]            5.56
 count for grid        5:            600          cutoff [a.u.]            1.85
 total gridlevel count  :        1370169

 -------------------------------------------------------------------------------
 -                                                                             -
 -                         MESSAGE PASSING PERFORMANCE                         -
 -                                                                             -
 -------------------------------------------------------------------------------

 ROUTINE             CALLS      AVE VOLUME [Bytes]
 MP_Group             5935
 MP_Bcast            22678                  17606.
 MP_Allreduce       347535                     13.
 MP_Sync             23867
 MP_Alltoall        302191                  26270.
 MP_SendRecv         22776                    256.
 MP_ISendRecv      1102296                  12164.
 MP_Wait           6424768
 MP_comm_split        1838
 MP_ISend          7349544                    111.
 MP_IRecv          7317398                     92.
 MP_Recv              1160                    288.
 MP_Memory         6982286
 -------------------------------------------------------------------------------


 -------------------------------------------------------------------------------
 -                                                                             -
 -                           R E F E R E N C E S                               -
 -                                                                             -
 -------------------------------------------------------------------------------
 
 CP2K version 7.0 (Development Version), the CP2K developers group (2018).
 CP2K is freely available from https://www.cp2k.org/ .

 Schuett, Ole; Messmer, Peter; Hutter, Juerg; VandeVondele, Joost. 
 Electronic Structure Calculations on Graphics Processing Units, John Wiley & Sons, Ltd, 173-190 (2016). 
 GPU-Accelerated Sparse Matrix-Matrix Multiplication for Linear Scaling Density Functional Theory.
 http://dx.doi.org/10.1002/9781118670712.ch8


 Borstnik, U; VandeVondele, J; Weber, V; Hutter, J. 
 PARALLEL COMPUTING, 40 (5-6), 47-58 (2014). 
 Sparse matrix multiplication: The distributed block-compressed sparse
 row library.
 http://dx.doi.org/10.1016/j.parco.2014.03.012


 Hutter, J; Iannuzzi, M; Schiffmann, F; VandeVondele, J. 
 WILEY INTERDISCIPLINARY REVIEWS-COMPUTATIONAL MOLECULAR SCIENCE, 4 (1), 15-25 (2014). 
 CP2K: atomistic simulations of condensed matter systems.
 http://dx.doi.org/10.1002/wcms.1159


 Grimme, S; Ehrlich, S; Goerigk, L. 
 JOURNAL OF COMPUTATIONAL CHEMISTRY, 32, 1456 (2011). 
 Effect of the damping function in dispersion corrected density functional theory.
 http://dx.doi.org/10.1002/jcc.21759


 Grimme, S; Antony, J; Ehrlich, S; Krieg, H. 
 JOURNAL OF CHEMICAL PHYSICS, 132 (15), 154104 (2010). 
 A consistent and accurate ab initio parametrization of density
 functional dispersion correction (DFT-D) for the 94 elements H-Pu.
 http://dx.doi.org/10.1063/1.3382344


 VandeVondele, J; Hutter, J. 
 JOURNAL OF CHEMICAL PHYSICS, 127 (11), 114105 (2007). 
 Gaussian basis sets for accurate calculations on molecular systems in
 gas and condensed phases.
 http://dx.doi.org/10.1063/1.2770708


 Krack, M. 
 THEORETICAL CHEMISTRY ACCOUNTS, 114 (1-3), 145-152 (2005). 
 Pseudopotentials for H to Kr optimized for gradient-corrected
 exchange-correlation functionals.
 http://dx.doi.org/10.1007/s00214-005-0655-y


 VandeVondele, J; Krack, M; Mohamed, F; Parrinello, M; Chassaing, T;
 Hutter, J. COMPUTER PHYSICS COMMUNICATIONS, 167 (2), 103-128 (2005). 
 QUICKSTEP: Fast and accurate density functional calculations using a
 mixed Gaussian and plane waves approach.
 http://dx.doi.org/10.1016/j.cpc.2004.12.014


 Frigo, M; Johnson, SG. 
 PROCEEDINGS OF THE IEEE, 93 (2), 216-231 (2005). 
 The design and implementation of FFTW3.
 http://dx.doi.org/10.1109/JPROC.2004.840301


 Kolafa, J. 
 JOURNAL OF COMPUTATIONAL CHEMISTRY, 25 (3), 335-342 (2004). 
 Time-reversible always stable predictor-corrector method for molecular dynamics of polarizable molecules.
 http://dx.doi.org/10.1002/jcc.10385


 VandeVondele, J; Hutter, J. 
 JOURNAL OF CHEMICAL PHYSICS, 118 (10), 4365-4369 (2003). 
 An efficient orbital transformation method for electronic structure
 calculations.
 http://dx.doi.org/10.1063/1.1543154


 Hartwigsen, C; Goedecker, S; Hutter, J. 
 PHYSICAL REVIEW B, 58 (7), 3641-3662 (1998). 
 Relativistic separable dual-space Gaussian pseudopotentials from H to Rn.
 http://dx.doi.org/10.1103/PhysRevB.58.3641


 Lippert, G; Hutter, J; Parrinello, M. 
 MOLECULAR PHYSICS, 92 (3), 477-487 (1997). 
 A hybrid Gaussian and plane wave density functional scheme.
 http://dx.doi.org/10.1080/002689797170220


 Perdew, JP; Burke, K; Ernzerhof, M. 
 PHYSICAL REVIEW LETTERS, 77 (18), 3865-3868 (1996). 
 Generalized gradient approximation made simple.
 http://dx.doi.org/10.1103/PhysRevLett.77.3865


 Goedecker, S; Teter, M; Hutter, J. 
 PHYSICAL REVIEW B, 54 (3), 1703-1710 (1996). 
 Separable dual-space Gaussian pseudopotentials.
 http://dx.doi.org/10.1103/PhysRevB.54.1703


 -------------------------------------------------------------------------------
 -                                                                             -
 -                                T I M I N G                                  -
 -                                                                             -
 -------------------------------------------------------------------------------
 SUBROUTINE                       CALLS  ASD         SELF TIME        TOTAL TIME
                                MAXIMUM       AVERAGE  MAXIMUM  AVERAGE  MAXIMUM
 CP2K                                 1  1.0    0.074    0.089  577.881  577.888
 cp_geo_opt                           1  2.0    0.000    0.000  577.391  577.393
 geoopt_bfgs                          1  3.0    0.027    0.037  577.391  577.393
 cp_eval_at                         147  4.0    0.018    0.027  559.016  559.028
 qs_forces                          146  5.0    0.014    0.043  556.939  556.949
 qs_energies                        147  6.0    0.015    0.068  520.600  520.616
 scf_env_do_scf                     147  7.0    0.008    0.016  461.142  461.143
 scf_env_do_scf_inner_loop         1591  8.0    0.063    0.116  438.963  438.972
 mp_waitall_1                   6424768 16.8  283.980  329.194  283.980  329.194
 rs_pw_transfer                   28264 12.9    0.113    0.127  285.010  328.867
 qs_rho_update_rho                 1738  9.1    0.011    0.013  314.152  314.257
 calculate_rho_elec                3476 10.1   43.667  276.770  314.141  314.245
 density_rs2pw                     3476 11.1    0.107    0.124  268.658  312.316
 rs_pw_transfer_RS2PW_150          3770 13.0    2.343    2.523  259.027  302.948
 dbcsr_multiply_generic           55213 13.8    1.909    2.108  120.136  125.818
 rebuild_ks_matrix                 1737  9.7    0.005    0.015  109.520  109.599
 qs_ks_build_kohn_sham_matrix      1737 10.7    0.165    0.197  109.515  109.595
 sum_up_and_integrate              1015 11.6    0.085    0.116   60.258   88.468
 integrate_v_rspace                2030 12.6   10.534   67.182   60.171   88.389
 qs_scf_new_mos                    1591  9.0    0.008    0.020   87.328   87.400
 qs_scf_loop_do_ot                 1591 10.0    0.011    0.026   87.320   87.393
 ot_scf_mini                       1591 11.0    0.065    0.091   81.585   81.667
 qs_ks_update_qs_env               1738  9.0    0.014    0.026   76.005   76.063
 pw_transfer                      54184 13.3    2.686    2.844   50.576   56.161
 potential_pw2rs                   2030 13.6    0.065    0.074   49.490   54.785
 fft_wrap_pw1pw2                  50710 14.3    0.157    0.178   47.852   53.456
 fft3d_ps                         50710 16.3    2.867    3.689   46.164   51.843
 fft_wrap_pw1pw2_150              28686 15.6    0.695    0.853   44.019   49.620
 mp_sum_l                        259546 14.9   40.707   46.835   40.707   46.835
 ot_mini                           1591 12.0    0.009    0.022   46.258   46.300
 mp_alltoall_z22v                 50710 18.3   39.722   45.952   39.722   45.952
 multiply_cannon                  55213 14.8   10.073   10.591   43.494   45.319
 yz_to_x                          11743 17.3    0.234    0.345   35.196   41.157
 qs_ot_get_derivative              1738 13.0    0.011    0.021   39.278   39.369
 qs_ks_update_qs_env_forces         146  6.0    0.001    0.001   33.805   33.829
 init_scf_run                       147  7.0    0.003    0.018   31.863   31.865
 scf_env_initial_rho_setup          147  8.0    0.002    0.006   31.860   31.861
 wfi_extrapolate                    147  9.0    0.013    0.065   31.236   31.237
 make_m2s                        110426 14.8    1.986    2.119   28.903   29.599
 mp_sum_d                         43128 14.0   23.257   26.885   23.257   26.885
 qs_energies_init_hamiltonians      147  7.0    0.002    0.013   21.940   21.974
 init_scf_loop                      147  8.0    0.007    0.026   21.916   21.926
 qs_ot_get_derivative_taylor       1334 14.0    0.031    0.046   21.091   21.153
 make_images                     110426 15.8    2.364    2.612   20.378   20.754
 qs_ot_get_p                       3476 11.8    0.016    0.023   20.492   20.640
 calculate_dispersion_pairpot       147  8.0    2.276   17.172   18.601   18.631
 rs_pw_transfer_PW2RS_150          2470 14.9    1.909    2.032   16.309   16.482
 mp_sum_dm                         5986  6.1   15.861   16.302   15.861   16.302
 virial_evaluate                    145  4.0    0.000    0.000   15.716   16.141
 qs_vxc_create                     1737 11.7    0.022    0.032   14.585   14.622
 write_restart                      146  4.0    0.371   14.398    0.383   14.416
 xc_vxc_pw_create                  1015 12.6    1.631    2.060   11.798   11.835
 -------------------------------------------------------------------------------

 The number of warnings for this run is : 1
 
 -------------------------------------------------------------------------------
  **** **** ******  **  PROGRAM ENDED AT                 2019-07-07 22:14:11.104
 ***** ** ***  *** **   PROGRAM RAN ON            blg9150.int.ets1.calculquebec.
 **    ****   ******    PROGRAM RAN BY                                       rzk
 ***** **    ** ** **   PROGRAM PROCESS ID                                137624
  **** **  *******  **  PROGRAM STOPPED IN /lustre04/scratch/rzk/rzk/GaN-carbene
                                           /443-adatoms-both-2x2/09-BondBreaking
                                           -CH/02-0401-CH-to-NTop-PES/PRACTICE
