 DBCSR| Multiplication driver                                               BLAS
 DBCSR| Multrec recursion limit                                              512
 DBCSR| Multiplication stack size                                           1000
 DBCSR| Maximum elements for images                                    UNLIMITED
 DBCSR| Multiplicative factor virtual images                                   1
 DBCSR| Multiplication size stacks                                             3
 DBCSR| Number of 3D layers                                               SINGLE
 DBCSR| Use MPI memory allocation                                              T
 DBCSR| Use RMA algorithm                                                      F
 DBCSR| Use Communication thread                                               T
 DBCSR| Communication thread load                                             87


  **** **** ******  **  PROGRAM STARTED AT               2019-07-08 14:52:28.800
 ***** ** ***  *** **   PROGRAM STARTED ON        blg9617.int.ets1.calculquebec.
 **    ****   ******    PROGRAM STARTED BY                                   rzk
 ***** **    ** ** **   PROGRAM PROCESS ID                                368650
  **** **  *******  **  PROGRAM STARTED IN /lustre04/scratch/rzk/rzk/GaN-carbene
                                           /443-adatoms-both-2x2/09-BondBreaking
                                           -CH/02-0401-CH-to-NTop-PES/PRACTICE

 CP2K| version string:                    CP2K version 7.0 (Development Version)
 CP2K| source code revision number:                                    svn:18619
 CP2K| cp2kflags: libint fftw3 libxc parallel mpi3 scalapack mkl                
 CP2K| is freely available from                            https://www.cp2k.org/
 CP2K| Program compiled at                          Sun Apr  7 00:48:11 EDT 2019
 CP2K| Program compiled on                      beluga2.int.ets1.calculquebec.ca
 CP2K| Program compiled for                    Beluga-Linux-x86-64-intel-openmpi
 CP2K| Data directory path    /home/rzk/projects/def-rzk/group/cp2k/cp2k-mcgill/
 CP2K| Input file name                                            TEST-1.restart
 
 GLOBAL| Force Environment number                                              1
 GLOBAL| Basis set file name                                        BASIS_MOLOPT
 GLOBAL| Potential file name                                      GTH_POTENTIALS
 GLOBAL| MM Potential file name                                     MM_POTENTIAL
 GLOBAL| Coordinate file name                                      __STD_INPUT__
 GLOBAL| Method name                                                        CP2K
 GLOBAL| Project name                                                       TEST
 GLOBAL| Preferred FFT library                                             FFTW3
 GLOBAL| Preferred diagonalization lib.                                       SL
 GLOBAL| Run type                                                        GEO_OPT
 GLOBAL| All-to-all communication in single precision                          F
 GLOBAL| FFTs using library dependent lengths                                  F
 GLOBAL| Global print level                                               MEDIUM
 GLOBAL| MPI I/O enabled                                                       T
 GLOBAL| Total number of message passing processes                            40
 GLOBAL| Number of threads for this process                                    1
 GLOBAL| This output is from process                                           0
 GLOBAL| CPU model name :  Intel(R) Xeon(R) Gold 6148 CPU @ 2.40GHz

 MEMORY| system memory details [Kb]
 MEMORY|                        rank 0           min           max       average
 MEMORY| MemTotal            196614300     196614300     196614300     196614300
 MEMORY| MemFree             157433696     157433696     157433696     157433696
 MEMORY| Buffers                    76            76            76            76
 MEMORY| Cached                1382676       1382676       1382676       1382676
 MEMORY| Slab                  2126048       2126048       2126048       2126048
 MEMORY| SReclaimable           206464        206464        206464        206464
 MEMORY| MemLikelyFree       159022912     159022912     159022912     159022912


 *** Fundamental physical constants (SI units) ***

 *** Literature: B. J. Mohr and B. N. Taylor,
 ***             CODATA recommended values of the fundamental physical
 ***             constants: 2006, Web Version 5.1
 ***             http://physics.nist.gov/constants

 Speed of light in vacuum [m/s]                             2.99792458000000E+08
 Magnetic constant or permeability of vacuum [N/A**2]       1.25663706143592E-06
 Electric constant or permittivity of vacuum [F/m]          8.85418781762039E-12
 Planck constant (h) [J*s]                                  6.62606896000000E-34
 Planck constant (h-bar) [J*s]                              1.05457162825177E-34
 Elementary charge [C]                                      1.60217648700000E-19
 Electron mass [kg]                                         9.10938215000000E-31
 Electron g factor [ ]                                     -2.00231930436220E+00
 Proton mass [kg]                                           1.67262163700000E-27
 Fine-structure constant                                    7.29735253760000E-03
 Rydberg constant [1/m]                                     1.09737315685270E+07
 Avogadro constant [1/mol]                                  6.02214179000000E+23
 Boltzmann constant [J/K]                                   1.38065040000000E-23
 Atomic mass unit [kg]                                      1.66053878200000E-27
 Bohr radius [m]                                            5.29177208590000E-11

 *** Conversion factors ***

 [u] -> [a.u.]                                              1.82288848426455E+03
 [Angstrom] -> [Bohr] = [a.u.]                              1.88972613288564E+00
 [a.u.] = [Bohr] -> [Angstrom]                              5.29177208590000E-01
 [a.u.] -> [s]                                              2.41888432650478E-17
 [a.u.] -> [fs]                                             2.41888432650478E-02
 [a.u.] -> [J]                                              4.35974393937059E-18
 [a.u.] -> [N]                                              8.23872205491840E-08
 [a.u.] -> [K]                                              3.15774647902944E+05
 [a.u.] -> [kJ/mol]                                         2.62549961709828E+03
 [a.u.] -> [kcal/mol]                                       6.27509468713739E+02
 [a.u.] -> [Pa]                                             2.94210107994716E+13
 [a.u.] -> [bar]                                            2.94210107994716E+08
 [a.u.] -> [atm]                                            2.90362800883016E+08
 [a.u.] -> [eV]                                             2.72113838565563E+01
 [a.u.] -> [Hz]                                             6.57968392072181E+15
 [a.u.] -> [1/cm] (wave numbers)                            2.19474631370540E+05
 [a.u./Bohr**2] -> [1/cm]                                   5.14048714338585E+03
 
          ----------------------------------------------------------------------
 COLVARS| COLVAR INPUT INDEX:        1
 COLVARS| BOND          >>> ATOMS:                                     3       4
          ----------------------------------------------------------------------

 CELL_TOP| Volume [angstrom^3]:                                          125.000
 CELL_TOP| Vector a [angstrom     5.000     0.000     0.000    |a| =       5.000
 CELL_TOP| Vector b [angstrom     0.000     5.000     0.000    |b| =       5.000
 CELL_TOP| Vector c [angstrom     0.000     0.000     5.000    |c| =       5.000
 CELL_TOP| Angle (b,c), alpha [degree]:                                   90.000
 CELL_TOP| Angle (a,c), beta  [degree]:                                   90.000
 CELL_TOP| Angle (a,b), gamma [degree]:                                   90.000
 CELL_TOP| Numerically orthorhombic:                                         YES
 RESTRAINT| Active restraint on COLLECTIVE section Nr.     1. K [a.u.]=10.000000
 
 GENERATE|  Preliminary Number of Bonds generated:                             0
 GENERATE|  Achieved consistency in connectivity generation.

 CELL| Volume [angstrom^3]:                                              125.000
 CELL| Vector a [angstrom]:       5.000     0.000     0.000    |a| =       5.000
 CELL| Vector b [angstrom]:       0.000     5.000     0.000    |b| =       5.000
 CELL| Vector c [angstrom]:       0.000     0.000     5.000    |c| =       5.000
 CELL| Angle (b,c), alpha [degree]:                                       90.000
 CELL| Angle (a,c), beta  [degree]:                                       90.000
 CELL| Angle (a,b), gamma [degree]:                                       90.000
 CELL| Numerically orthorhombic:                                             YES

 CELL_REF| Volume [angstrom^3]:                                          125.000
 CELL_REF| Vector a [angstrom     5.000     0.000     0.000    |a| =       5.000
 CELL_REF| Vector b [angstrom     0.000     5.000     0.000    |b| =       5.000
 CELL_REF| Vector c [angstrom     0.000     0.000     5.000    |c| =       5.000
 CELL_REF| Angle (b,c), alpha [degree]:                                   90.000
 CELL_REF| Angle (a,c), beta  [degree]:                                   90.000
 CELL_REF| Angle (a,b), gamma [degree]:                                   90.000
 CELL_REF| Numerically orthorhombic:                                         YES

 *******************************************************************************
 *******************************************************************************
 **                                                                           **
 **     #####                         ##              ##                      **
 **    ##   ##            ##          ##              ##                      **
 **   ##     ##                       ##            ######                    **
 **   ##     ##  ##   ##  ##   #####  ##  ##   ####   ##    #####    #####    **
 **   ##     ##  ##   ##  ##  ##      ## ##   ##      ##   ##   ##  ##   ##   **
 **   ##  ## ##  ##   ##  ##  ##      ####     ###    ##   ######   ######    **
 **    ##  ###   ##   ##  ##  ##      ## ##      ##   ##   ##       ##        **
 **     #######   #####   ##   #####  ##  ##  ####    ##    #####   ##        **
 **           ##                                                    ##        **
 **                                                                           **
 **                                                ... make the atoms dance   **
 **                                                                           **
 **            Copyright (C) by CP2K developers group (2000 - 2018)           **
 **                                                                           **
 *******************************************************************************

 DFT| Spin unrestricted (spin-polarized) Kohn-Sham calculation               UKS
 DFT| Multiplicity                                                             1
 DFT| Number of spin states                                                    2
 DFT| Charge                                                                   0
 DFT| Self-interaction correction (SIC)                                       NO
 DFT| Cutoffs: density                                              1.000000E-10
 DFT|          gradient                                             1.000000E-10
 DFT|          tau                                                  1.000000E-10
 DFT|          cutoff_smoothing_range                               0.000000E+00
 DFT| XC density smoothing                                                  NONE
 DFT| XC derivatives                                                          PW
 FUNCTIONAL| ROUTINE=NEW
 FUNCTIONAL| PBE:
 FUNCTIONAL| J.P.Perdew, K.Burke, M.Ernzerhof, Phys. Rev. Letter, vol. 77, n 18,
 FUNCTIONAL|  pp. 3865-3868, (1996){spin polarized}                             
 vdW POTENTIAL|                                                   Pair Potential
 vdW POTENTIAL|          DFT-D3 (Version 3.1)
 vdW POTENTIAL|          Potential Form: S. Grimme et al, JCP 132: 154104 (2010)
 vdW POTENTIAL|          Zero Damping
 vdW POTENTIAL|          Cutoff Radius [Bohr]:                             18.90
 vdW POTENTIAL|          s6 Scaling Factor:                               1.0000
 vdW POTENTIAL|          sr6 Scaling Factor:                              1.2170
 vdW POTENTIAL|          s8 Scaling Factor:                               0.7220
 vdW POTENTIAL|          Cutoff for CN calculation:                   0.1000E-05

 QS| Method:                                                                 GPW
 QS| Density plane wave grid type                        NON-SPHERICAL FULLSPACE
 QS| Number of grid levels:                                                    5
 QS| Density cutoff [a.u.]:                                                150.0
 QS| Multi grid cutoff [a.u.]: 1) grid level                               150.0
 QS|                           2) grid level                                50.0
 QS|                           3) grid level                                16.7
 QS|                           4) grid level                                 5.6
 QS|                           5) grid level                                 1.9
 QS| Grid level progression factor:                                          3.0
 QS| Relative density cutoff [a.u.]:                                        20.0
 QS| Consistent realspace mapping and integration 
 QS| Interaction thresholds: eps_pgf_orb:                                1.0E-07
 QS|                         eps_filter_matrix:                          0.0E+00
 QS|                         eps_core_charge:                            1.0E-16
 QS|                         eps_rho_gspace:                             1.0E-14
 QS|                         eps_rho_rspace:                             1.0E-14
 QS|                         eps_gvg_rspace:                             1.0E-07
 QS|                         eps_ppl:                                    1.0E-02
 QS|                         eps_ppnl:                                   1.0E-09


 ATOMIC KIND INFORMATION

  1. Atomic kind: O                                     Number of atoms:       2

     Orbital Basis Set                                     DZVP-MOLOPT-SR-GTH-q6

       Number of orbital shell sets:                                           1
       Number of orbital shells:                                               5
       Number of primitive Cartesian functions:                                5
       Number of Cartesian basis functions:                                   14
       Number of spherical basis functions:                                   13
       Norm type:                                                              2

       Normalised Cartesian orbitals:

                        Set   Shell   Orbital            Exponent    Coefficient

                          1       1    2s               10.389228       0.396646
                                                         3.849621       0.208811
                                                         1.388401      -0.301641
                                                         0.496955      -0.274061
                                                         0.162492      -0.033677

                          1       2    3s               10.389228       0.303673
                                                         3.849621       0.240943
                                                         1.388401      -0.313066
                                                         0.496955      -0.043055
                                                         0.162492       0.213991

                          1       3    3px              10.389228      -1.530415
                                                         3.849621      -1.371928
                                                         1.388401      -0.761951
                                                         0.496955      -0.253695
                                                         0.162492      -0.035541
                          1       3    3py              10.389228      -1.530415
                                                         3.849621      -1.371928
                                                         1.388401      -0.761951
                                                         0.496955      -0.253695
                                                         0.162492      -0.035541
                          1       3    3pz              10.389228      -1.530415
                                                         3.849621      -1.371928
                                                         1.388401      -0.761951
                                                         0.496955      -0.253695
                                                         0.162492      -0.035541

                          1       4    4px              10.389228      -0.565392
                                                         3.849621      -0.038231
                                                         1.388401      -0.382373
                                                         0.496955       0.179070
                                                         0.162492       0.122714
                          1       4    4py              10.389228      -0.565392
                                                         3.849621      -0.038231
                                                         1.388401      -0.382373
                                                         0.496955       0.179070
                                                         0.162492       0.122714
                          1       4    4pz              10.389228      -0.565392
                                                         3.849621      -0.038231
                                                         1.388401      -0.382373
                                                         0.496955       0.179070
                                                         0.162492       0.122714

                          1       5    4dx2             10.389228       1.867377
                                                         3.849621       0.670994
                                                         1.388401       1.353441
                                                         0.496955       0.273538
                                                         0.162492       0.006620
                          1       5    4dxy             10.389228       3.234392
                                                         3.849621       1.162195
                                                         1.388401       2.344229
                                                         0.496955       0.473781
                                                         0.162492       0.011466
                          1       5    4dxz             10.389228       3.234392
                                                         3.849621       1.162195
                                                         1.388401       2.344229
                                                         0.496955       0.473781
                                                         0.162492       0.011466
                          1       5    4dy2             10.389228       1.867377
                                                         3.849621       0.670994
                                                         1.388401       1.353441
                                                         0.496955       0.273538
                                                         0.162492       0.006620
                          1       5    4dyz             10.389228       3.234392
                                                         3.849621       1.162195
                                                         1.388401       2.344229
                                                         0.496955       0.473781
                                                         0.162492       0.011466
                          1       5    4dz2             10.389228       1.867377
                                                         3.849621       0.670994
                                                         1.388401       1.353441
                                                         0.496955       0.273538
                                                         0.162492       0.006620

     GTH Potential information for                                    GTH-PBE-q6

       Description:                       Goedecker-Teter-Hutter pseudopotential
                                           Goedecker et al., PRB 54, 1703 (1996)
                                          Hartwigsen et al., PRB 58, 3641 (1998)
                                                      Krack, TCA 114, 145 (2005)

       Gaussian exponent of the core charge distribution:               8.360253
       Electronic configuration (s p d ...):                               2   4

       Parameters of the local part of the GTH pseudopotential:

                          rloc        C1          C2          C3          C4
                        0.244554  -16.667215    2.487311

       Parameters of the non-local part of the GTH pseudopotential:

                   l      r(l)      h(i,j,l)

                   0    0.220956   18.337458
                   1    0.211332

  2. Atomic kind: H                                     Number of atoms:       4

     Orbital Basis Set                                     DZVP-MOLOPT-SR-GTH-q1

       Number of orbital shell sets:                                           1
       Number of orbital shells:                                               3
       Number of primitive Cartesian functions:                                5
       Number of Cartesian basis functions:                                    5
       Number of spherical basis functions:                                    5
       Norm type:                                                              2

       Normalised Cartesian orbitals:

                        Set   Shell   Orbital            Exponent    Coefficient

                          1       1    2s               10.068468      -0.133023
                                                         2.680223      -0.177618
                                                         0.791502      -0.258419
                                                         0.239116      -0.107525
                                                         0.082193      -0.014019

                          1       2    3s               10.068468       0.344673
                                                         2.680223       1.819821
                                                         0.791502      -0.999069
                                                         0.239116       0.017430
                                                         0.082193       0.082660

                          1       3    3px              10.068468       0.155326
                                                         2.680223       0.367157
                                                         0.791502       0.311480
                                                         0.239116       0.080105
                                                         0.082193       0.033440
                          1       3    3py              10.068468       0.155326
                                                         2.680223       0.367157
                                                         0.791502       0.311480
                                                         0.239116       0.080105
                                                         0.082193       0.033440
                          1       3    3pz              10.068468       0.155326
                                                         2.680223       0.367157
                                                         0.791502       0.311480
                                                         0.239116       0.080105
                                                         0.082193       0.033440

     GTH Potential information for                                    GTH-PBE-q1

       Description:                       Goedecker-Teter-Hutter pseudopotential
                                           Goedecker et al., PRB 54, 1703 (1996)
                                          Hartwigsen et al., PRB 58, 3641 (1998)
                                                      Krack, TCA 114, 145 (2005)

       Gaussian exponent of the core charge distribution:              12.500000
       Electronic configuration (s p d ...):                                   1

       Parameters of the local part of the GTH pseudopotential:

                          rloc        C1          C2          C3          C4
                        0.200000   -4.178900    0.724463


 MOLECULE KIND INFORMATION


 All atoms are their own molecule, skipping detailed information


 TOTAL NUMBERS AND MAXIMUM NUMBERS

  Total number of            - Atomic kinds:                                   2
                             - Atoms:                                          6
                             - Shell sets:                                     6
                             - Shells:                                        22
                             - Primitive Cartesian functions:                 30
                             - Cartesian basis functions:                     48
                             - Spherical basis functions:                     46

  Maximum angular momentum of- Orbital basis functions:                        2
                             - Local part of the GTH pseudopotential:          2
                             - Non-local part of the GTH pseudopotential:      0


 MODULE QUICKSTEP:  ATOMIC COORDINATES IN angstrom

  Atom  Kind  Element       X           Y           Z          Z(eff)       Mass

       1     1 O    8   -1.121161    0.366295   -0.926302      6.00      15.9994
       2     2 H    1   -1.140241    1.331207   -0.913344      1.00       1.0079
       3     2 H    1   -0.181829    0.030669   -0.309971      1.00       1.0079
       4     1 O    8    0.661596   -0.367866    0.277411      6.00      15.9994
       5     2 H    1    0.594125   -0.130295    1.221197      1.00       1.0079
       6     2 H    1    1.582170   -0.145124   -0.021177      1.00       1.0079




 SCF PARAMETERS         Density guess:                                    ATOMIC
                        --------------------------------------------------------
                        max_scf:                                              80
                        max_scf_history:                                       0
                        max_diis:                                              4
                        --------------------------------------------------------
                        eps_scf:                                        5.00E-06
                        eps_scf_history:                                0.00E+00
                        eps_diis:                                       1.00E-01
                        eps_eigval:                                     1.00E-05
                        --------------------------------------------------------
                        level_shift [a.u.]:                                 0.00
                        --------------------------------------------------------
                        Outer loop SCF in use 
                        No variables optimised in outer loop
                        eps_scf                                         5.00E-06
                        max_scf                                                4
                        No outer loop optimization
                        step_size                                       5.00E-01

 PW_GRID| Information for grid number                                          1
 PW_GRID| Grid distributed over                                    40 processors
 PW_GRID| Real space group dimensions                                    40    1
 PW_GRID| the grid is blocked:                                                NO
 PW_GRID| Cutoff [a.u.]                                                    150.0
 PW_GRID| spherical cutoff:                                                   NO
 PW_GRID|   Bounds   1            -27      26                Points:          54
 PW_GRID|   Bounds   2            -27      26                Points:          54
 PW_GRID|   Bounds   3            -27      26                Points:          54
 PW_GRID| Volume element (a.u.^3)  0.5357E-02     Volume (a.u.^3)       843.5418
 PW_GRID| Grid span                                                    FULLSPACE
 PW_GRID|   Distribution                         Average         Max         Min
 PW_GRID|   G-Vectors                             3936.6        3942        3888
 PW_GRID|   G-Rays                                  72.9          73          72
 PW_GRID|   Real Space Points                     3936.6        5832        2916

 PW_GRID| Information for grid number                                          2
 PW_GRID| Grid distributed over                                    40 processors
 PW_GRID| Real space group dimensions                                     5    8
 PW_GRID| the grid is blocked:                                                NO
 PW_GRID| Cutoff [a.u.]                                                     50.0
 PW_GRID| spherical cutoff:                                                   NO
 PW_GRID|   Bounds   1            -16      15                Points:          32
 PW_GRID|   Bounds   2            -16      15                Points:          32
 PW_GRID|   Bounds   3            -16      15                Points:          32
 PW_GRID| Volume element (a.u.^3)  0.2574E-01     Volume (a.u.^3)       843.5418
 PW_GRID| Grid span                                                    FULLSPACE
 PW_GRID|   Distribution                         Average         Max         Min
 PW_GRID|   G-Vectors                              819.2         896         768
 PW_GRID|   G-Rays                                  25.6          28          24
 PW_GRID|   Real Space Points                      819.2         896         768

 PW_GRID| Information for grid number                                          3
 PW_GRID| Grid distributed over                                    40 processors
 PW_GRID| Real space group dimensions                                     5    8
 PW_GRID| the grid is blocked:                                                NO
 PW_GRID| Cutoff [a.u.]                                                     16.7
 PW_GRID| spherical cutoff:                                                   NO
 PW_GRID|   Bounds   1             -9       8                Points:          18
 PW_GRID|   Bounds   2             -9       8                Points:          18
 PW_GRID|   Bounds   3             -9       8                Points:          18
 PW_GRID| Volume element (a.u.^3)  0.1446         Volume (a.u.^3)       843.5418
 PW_GRID| Grid span                                                    FULLSPACE
 PW_GRID|   Distribution                         Average         Max         Min
 PW_GRID|   G-Vectors                              145.8         180         126
 PW_GRID|   G-Rays                                   8.1          10           7
 PW_GRID|   Real Space Points                      145.8         216         108

 PW_GRID| Information for grid number                                          4
 PW_GRID| Grid distributed over                                    40 processors
 PW_GRID| Real space group dimensions                                     5    8
 PW_GRID| the grid is blocked:                                                NO
 PW_GRID| Cutoff [a.u.]                                                      5.6
 PW_GRID| spherical cutoff:                                                   NO
 PW_GRID|   Bounds   1             -6       5                Points:          12
 PW_GRID|   Bounds   2             -6       5                Points:          12
 PW_GRID|   Bounds   3             -6       5                Points:          12
 PW_GRID| Volume element (a.u.^3)  0.4882         Volume (a.u.^3)       843.5418
 PW_GRID| Grid span                                                    FULLSPACE
 PW_GRID|   Distribution                         Average         Max         Min
 PW_GRID|   G-Vectors                               43.2          60          36
 PW_GRID|   G-Rays                                   3.6           5           3
 PW_GRID|   Real Space Points                       43.2          72          24

 PW_GRID| Information for grid number                                          5
 PW_GRID| Grid distributed over                                    40 processors
 PW_GRID| Real space group dimensions                                     5    8
 PW_GRID| the grid is blocked:                                                NO
 PW_GRID| Cutoff [a.u.]                                                      1.9
 PW_GRID| spherical cutoff:                                                   NO
 PW_GRID|   Bounds   1             -3       2                Points:           6
 PW_GRID|   Bounds   2             -3       2                Points:           6
 PW_GRID|   Bounds   3             -3       2                Points:           6
 PW_GRID| Volume element (a.u.^3)   3.905         Volume (a.u.^3)       843.5418
 PW_GRID| Grid span                                                    FULLSPACE
 PW_GRID|   Distribution                         Average         Max         Min
 PW_GRID|   G-Vectors                                5.4          12           0
 PW_GRID|   G-Rays                                   0.9           2           0
 PW_GRID|   Real Space Points                        5.4          12           0

 POISSON| Solver                                                        PERIODIC
 POISSON| Periodicity                                                        XYZ

 RS_GRID| Information for grid number                                          1
 RS_GRID|   Bounds   1            -27      26                Points:          54
 RS_GRID|   Bounds   2            -27      26                Points:          54
 RS_GRID|   Bounds   3            -27      26                Points:          54
 RS_GRID| Real space fully replicated
 RS_GRID| Group size                                                           1

 RS_GRID| Information for grid number                                          2
 RS_GRID|   Bounds   1            -16      15                Points:          32
 RS_GRID|   Bounds   2            -16      15                Points:          32
 RS_GRID|   Bounds   3            -16      15                Points:          32
 RS_GRID| Real space fully replicated
 RS_GRID| Group size                                                           1

 RS_GRID| Information for grid number                                          3
 RS_GRID|   Bounds   1             -9       8                Points:          18
 RS_GRID|   Bounds   2             -9       8                Points:          18
 RS_GRID|   Bounds   3             -9       8                Points:          18
 RS_GRID| Real space fully replicated
 RS_GRID| Group size                                                           1

 RS_GRID| Information for grid number                                          4
 RS_GRID|   Bounds   1             -6       5                Points:          12
 RS_GRID|   Bounds   2             -6       5                Points:          12
 RS_GRID|   Bounds   3             -6       5                Points:          12
 RS_GRID| Real space fully replicated
 RS_GRID| Group size                                                           1

 RS_GRID| Information for grid number                                          5
 RS_GRID|   Bounds   1             -3       2                Points:           6
 RS_GRID|   Bounds   2             -3       2                Points:           6
 RS_GRID|   Bounds   3             -3       2                Points:           6
 RS_GRID| Real space fully replicated
 RS_GRID| Group size                                                           1

 BFGS| Use rational function optimization for step estimation:                NO
 BFGS| Use model Hessian for initial guess:                                  YES
 BFGS| Restart Hessian:                                                       NO
 BFGS| Trust radius:                                                       0.472

 *******************************************************************************
 ***                     STARTING GEOMETRY OPTIMIZATION                      ***
 ***                                   BFGS                                  ***
 *******************************************************************************

 Spin 1

 Number of electrons:                                                          8
 Number of occupied orbitals:                                                  8
 Number of molecular orbitals:                                                 8

 Spin 2

 Number of electrons:                                                          8
 Number of occupied orbitals:                                                  8
 Number of molecular orbitals:                                                 8

 Number of orbital functions:                                                 46
 Number of independent orbital functions:                                     46

 Extrapolation method: initial_guess

 Atomic guess: The first density matrix is obtained in terms of atomic orbitals
               and electronic configurations assigned to each atomic kind

 Guess for atomic kind: O

 Electronic structure
    Total number of core electrons                                          2.00
    Total number of valence electrons                                       6.00
    Total number of electrons                                               8.00
    Multiplicity                                                   not specified
    S   [  2.00] 2.00
    P      4.00
 

 *******************************************************************************
                  Iteration          Convergence                     Energy [au]
 *******************************************************************************
                          1        0.702811                     -15.577904332270
                          2        0.612408                     -15.588447180504
                          3        0.955344E-02                 -15.655871208406
                          4        0.223754E-02                 -15.655885053552
                          5        0.157183E-02                 -15.655885461027
                          6        0.124953E-02                 -15.655885607150
                          7        0.312011E-06                 -15.655885858066

 Energy components [Hartree]           Total Energy ::          -15.655885858066
                                        Band Energy ::           -2.983128125584
                                     Kinetic Energy ::           11.754765134683
                                   Potential Energy ::          -27.410650992750
                                      Virial (-V/T) ::            2.331875684345
                                        Core Energy ::          -26.153522949072
                                          XC Energy ::           -3.157392363346
                                     Coulomb Energy ::           13.655029454351
                       Total Pseudopotential Energy ::          -37.943026860963
                       Local Pseudopotential Energy ::          -39.220419683052
                    Nonlocal Pseudopotential Energy ::            1.277392822089
                                        Confinement ::            0.347387772086

 Orbital energies  State     L     Occupation   Energy[a.u.]          Energy[eV]

                       1     0          2.000      -0.861522          -23.443215
 
                       1     1          4.000      -0.315021           -8.572154
 

 Total Electron Density at R=0:                                         0.000093

 Guess for atomic kind: H

 Electronic structure
    Total number of core electrons                                          0.00
    Total number of valence electrons                                       1.00
    Total number of electrons                                               1.00
    Multiplicity                                                   not specified
    S      1.00
 

 *******************************************************************************
                  Iteration          Convergence                     Energy [au]
 *******************************************************************************
                          1        0.250972E-02                  -0.375256815885
                          2        0.570752E-04                  -0.375258666164
                          3        0.832405E-09                  -0.375258667122

 Energy components [Hartree]           Total Energy ::           -0.375258667122
                                        Band Energy ::           -0.076317618391
                                     Kinetic Energy ::            0.771356566341
                                   Potential Energy ::           -1.146615233463
                                      Virial (-V/T) ::            1.486491829455
                                        Core Energy ::           -0.456090715790
                                          XC Energy ::           -0.314218627334
                                     Coulomb Energy ::            0.395050676003
                       Total Pseudopotential Energy ::           -1.238482237174
                       Local Pseudopotential Energy ::           -1.238482237174
                    Nonlocal Pseudopotential Energy ::            0.000000000000
                                        Confinement ::            0.110349550431

 Orbital energies  State     L     Occupation   Energy[a.u.]          Energy[eV]

                       1     0          1.000      -0.076318           -2.076708
 

 Total Electron Density at R=0:                                         0.425022

 Spin 1
 Re-scaling the density matrix to get the right number of electrons for spin 1
                  # Electrons              Trace(P)               Scaling factor
                            8                 8.004                        0.999

 Spin 2
 Re-scaling the density matrix to get the right number of electrons for spin 2
                  # Electrons              Trace(P)               Scaling factor
                            8                 8.004                        0.999


 SCF WAVEFUNCTION OPTIMIZATION

  ----------------------------------- OT ---------------------------------------
  Minimizer      : CG                  : conjugate gradient
  Preconditioner : FULL_ALL            : diagonalization, state selective
  Precond_solver : DEFAULT
  Line search    : 2PNT                : 2 energies, one gradient
  stepsize       :    0.15000000                  energy_gap     :    0.08000000
  eps_taylor     :   0.10000E-15                  max_taylor     :             4
  ----------------------------------- OT ---------------------------------------

  Step     Update method      Time    Convergence         Total energy    Change
  ------------------------------------------------------------------------------
     1 OT CG       0.15E+00    0.2     0.13113815       -32.0962158174 -3.21E+01
     2 OT LS       0.19E+00    0.2                      -33.2372940464
     3 OT CG       0.19E+00    0.3     0.15087761       -33.1423024067 -1.05E+00
     4 OT LS       0.45E-01    0.2                      -31.4187924318
     5 OT CG       0.45E-01    0.3     0.13559149       -33.2897578783 -1.47E-01
     6 OT LS       0.78E-01    0.2                      -33.7214698192
     7 OT CG       0.78E-01    0.3     0.06911229       -33.8405055345 -5.51E-01
     8 OT LS       0.23E+00    0.2                      -34.0825574934
     9 OT CG       0.23E+00    0.3     0.05632719       -34.1941791890 -3.54E-01
    10 OT LS       0.84E-01    0.2                      -34.0856510107
    11 OT CG       0.84E-01    0.3     0.05496784       -34.2545359020 -6.04E-02
    12 OT LS       0.11E+00    0.2                      -34.3696123782
    13 OT CG       0.11E+00    0.3     0.01896271       -34.3746131791 -1.20E-01
    14 OT LS       0.15E+00    0.2                      -34.3915559752
    15 OT CG       0.15E+00    0.3     0.01362549       -34.3926167774 -1.80E-02
    16 OT LS       0.24E+00    0.2                      -34.4062521673
    17 OT CG       0.24E+00    0.3     0.00885841       -34.4085024641 -1.59E-02
    18 OT LS       0.15E+00    0.2                      -34.4115530850
    19 OT CG       0.15E+00    0.3     0.00552050       -34.4128316510 -4.33E-03
    20 OT LS       0.14E+00    0.2                      -34.4143636595
    21 OT CG       0.14E+00    0.3     0.00346135       -34.4143798360 -1.55E-03
    22 OT LS       0.18E+00    0.2                      -34.4151214559
    23 OT CG       0.18E+00    0.3     0.00218507       -34.4151583817 -7.79E-04
    24 OT LS       0.18E+00    0.2                      -34.4154738496
    25 OT CG       0.18E+00    0.3     0.00121633       -34.4154739442 -3.16E-04
    26 OT LS       0.14E+00    0.2                      -34.4155396153
    27 OT CG       0.14E+00    0.3     0.00082798       -34.4155475696 -7.36E-05
    28 OT LS       0.15E+00    0.2                      -34.4155851916
    29 OT CG       0.15E+00    0.3     0.00044954       -34.4155855946 -3.80E-05
    30 OT LS       0.22E+00    0.2                      -34.4156002797
    31 OT CG       0.22E+00    0.3     0.00029311       -34.4156018411 -1.62E-05
    32 OT LS       0.14E+00    0.2                      -34.4156047526
    33 OT CG       0.14E+00    0.3     0.00019981       -34.4156062163 -4.38E-06
    34 OT LS       0.14E+00    0.2                      -34.4156083045
    35 OT CG       0.14E+00    0.3     0.00010617       -34.4156083060 -2.09E-06
    36 OT LS       0.22E+00    0.2                      -34.4156091125
    37 OT CG       0.22E+00    0.3     0.00006455       -34.4156092380 -9.32E-07
    38 OT LS       0.13E+00    0.2                      -34.4156093387
    39 OT CG       0.13E+00    0.3     0.00004518       -34.4156094398 -2.02E-07
    40 OT LS       0.16E+00    0.2                      -34.4156095574
    41 OT CG       0.16E+00    0.3     0.00002446       -34.4156095618 -1.22E-07
    42 OT LS       0.17E+00    0.2                      -34.4156095999
    43 OT CG       0.17E+00    0.3     0.00001381       -34.4156096001 -3.83E-08
    44 OT LS       0.15E+00    0.2                      -34.4156096102
    45 OT CG       0.15E+00    0.3     0.00000957       -34.4156096105 -1.04E-08
    46 OT LS       0.14E+00    0.2                      -34.4156096153
    47 OT CG       0.14E+00    0.3     0.00000511       -34.4156096153 -4.78E-09
    48 OT LS       0.16E+00    0.2                      -34.4156096168
    49 OT CG       0.16E+00    0.3     0.00000300       -34.4156096168 -1.50E-09

  *** SCF run converged in    49 steps ***


  Electronic density on regular grids:        -15.9999997708        0.0000002292
  Core density on regular grids:               16.0000000000       -0.0000000000
  Total charge density on r-space grids:        0.0000002292
  Total charge density g-space grids:           0.0000002292

  Overlap energy of the core charge distribution:               0.00000005224421
  Self energy of the core charge distribution:                -88.69430999347530
  Core Hamiltonian energy:                                     25.94429414384844
  Hartree energy:                                              36.83153581723803
  Exchange-correlation energy:                                 -8.49455763517386
  Dispersion energy:                                           -0.00257200146730

  Total energy:                                               -34.41560961678577

  outer SCF iter =    1 RMS gradient =   0.30E-05 energy =        -34.4156096168
  outer SCF loop converged in   1 iterations or   49 steps


  Integrated absolute spin density  :                               0.0000000000
  Ideal and single determinant S**2 :                    0.000000      -0.000000

 !-----------------------------------------------------------------------------!
                     Mulliken Population Analysis

 #  Atom  Element  Kind  Atomic population (alpha,beta) Net charge  Spin moment
       1     O        1         3.275855     3.275855    -0.551710    -0.000000
       2     H        2         0.452950     0.452950     0.094100     0.000000
       3     H        2         0.445749     0.445749     0.108502    -0.000000
       4     O        1         3.002405     3.002405    -0.004810    -0.000000
       5     H        2         0.412227     0.412227     0.175547    -0.000000
       6     H        2         0.410814     0.410814     0.178372    -0.000000
 # Total charge and spin        8.000000     8.000000    -0.000000    -0.000000

 !-----------------------------------------------------------------------------!

 !-----------------------------------------------------------------------------!
                           Hirshfeld Charges

  #Atom  Element  Kind  Ref Charge     Population       Spin moment  Net charge
      1       O      1       6.000    3.636   3.636           -0.000     -1.272
      2       H      2       1.000    0.227   0.227            0.000      0.546
      3       H      2       1.000    0.194   0.194           -0.000      0.612
      4       O      1       6.000    3.531   3.531           -0.000     -1.061
      5       H      2       1.000    0.209   0.209           -0.000      0.583
      6       H      2       1.000    0.203   0.203           -0.000      0.593

  Total Charge                                                            0.001
 !-----------------------------------------------------------------------------!

 ENERGY| Total FORCE_EVAL ( QS ) energy (a.u.):              -32.953169564077569


 --------  Informations at step =     0 ------------
  Optimization Method        =                 BFGS
  Total Energy               =       -32.9531695641
  Used time                  =               13.535
 ---------------------------------------------------

 --------------------------
 OPTIMIZATION STEP:      1
 --------------------------

  Step is scaled; Scaling factor =  0.08451

 Spin 1

 Number of electrons:                                                          8
 Number of occupied orbitals:                                                  8
 Number of molecular orbitals:                                                 8

 Spin 2

 Number of electrons:                                                          8
 Number of occupied orbitals:                                                  8
 Number of molecular orbitals:                                                 8

 Number of orbital functions:                                                 46
 Number of independent orbital functions:                                     46

 Parameters for the always stable predictor-corrector (ASPC) method:

  ASPC order: 0

  B(1) =   1.000000

 Parameters for the always stable predictor-corrector (ASPC) method:

  ASPC order: 0

  B(1) =   1.000000

 Extrapolation method: ASPC


 SCF WAVEFUNCTION OPTIMIZATION

  ----------------------------------- OT ---------------------------------------
  Minimizer      : CG                  : conjugate gradient
  Preconditioner : FULL_ALL            : diagonalization, state selective
  Precond_solver : DEFAULT
  Line search    : 2PNT                : 2 energies, one gradient
  stepsize       :    0.15000000                  energy_gap     :    0.08000000
  eps_taylor     :   0.10000E-15                  max_taylor     :             4
  ----------------------------------- OT ---------------------------------------

  Step     Update method      Time    Convergence         Total energy    Change
  ------------------------------------------------------------------------------
     1 OT CG       0.15E+00    0.2     0.05096024       -32.5467277176 -3.25E+01
     2 OT LS       0.26E+00    0.2                      -32.7513666775
     3 OT CG       0.26E+00    0.3     0.02612327       -32.7919683992 -2.45E-01
     4 OT LS       0.23E+00    0.2                      -32.8446915018
     5 OT CG       0.23E+00    0.3     0.00977148       -32.8457896715 -5.38E-02
     6 OT LS       0.19E+00    0.2                      -32.8523385203
     7 OT CG       0.19E+00    0.4     0.00236722       -32.8525701985 -6.78E-03
     8 OT LS       0.28E+00    0.2                      -32.8530911192
     9 OT CG       0.28E+00    0.3     0.00092290       -32.8531518768 -5.82E-04
    10 OT LS       0.19E+00    0.2                      -32.8531952107
    11 OT CG       0.19E+00    0.3     0.00034424       -32.8532106299 -5.88E-05
    12 OT LS       0.25E+00    0.2                      -32.8532209348
    13 OT CG       0.25E+00    0.3     0.00010860       -32.8532217061 -1.11E-05
    14 OT LS       0.25E+00    0.2                      -32.8532227836
    15 OT CG       0.25E+00    0.3     0.00004419       -32.8532227842 -1.08E-06
    16 OT LS       0.23E+00    0.2                      -32.8532229523
    17 OT CG       0.23E+00    0.3     0.00001567       -32.8532229528 -1.69E-07
    18 OT LS       0.19E+00    0.2                      -32.8532229689
    19 OT CG       0.19E+00    0.3     0.00000579       -32.8532229699 -1.71E-08
    20 OT LS       0.32E+00    0.2                      -32.8532229732
    21 OT CG       0.32E+00    0.3     0.00000195       -32.8532229739 -4.00E-09

  *** SCF run converged in    21 steps ***


  Electronic density on regular grids:        -16.0000001396       -0.0000001396
  Core density on regular grids:               16.0000000000        0.0000000000
  Total charge density on r-space grids:       -0.0000001396
  Total charge density g-space grids:          -0.0000001396

  Overlap energy of the core charge distribution:               0.07330057047307
  Self energy of the core charge distribution:                -88.69430999347530
  Core Hamiltonian energy:                                     28.22478193500089
  Hartree energy:                                              36.45429090421861
  Exchange-correlation energy:                                 -8.90885626525523
  Dispersion energy:                                           -0.00243012488449

  Total energy:                                               -32.85322297392244

  outer SCF iter =    1 RMS gradient =   0.19E-05 energy =        -32.8532229739
  outer SCF loop converged in   1 iterations or   21 steps


  Integrated absolute spin density  :                               0.0000000000
  Ideal and single determinant S**2 :                    0.000000      -0.000000

 !-----------------------------------------------------------------------------!
                     Mulliken Population Analysis

 #  Atom  Element  Kind  Atomic population (alpha,beta) Net charge  Spin moment
       1     O        1         3.393908     3.393908    -0.787815    -0.000000
       2     H        2         0.464145     0.464145     0.071709    -0.000000
       3     H        2         0.446909     0.446909     0.106181    -0.000000
       4     O        1         2.872014     2.872014     0.255972     0.000000
       5     H        2         0.408738     0.408738     0.182523     0.000000
       6     H        2         0.414285     0.414285     0.171429     0.000000
 # Total charge and spin        8.000000     8.000000    -0.000000    -0.000000

 !-----------------------------------------------------------------------------!

 !-----------------------------------------------------------------------------!
                           Hirshfeld Charges

  #Atom  Element  Kind  Ref Charge     Population       Spin moment  Net charge
      1       O      1       6.000    3.642   3.642           -0.000     -1.285
      2       H      2       1.000    0.233   0.233           -0.000      0.535
      3       H      2       1.000    0.399   0.399           -0.000      0.202
      4       O      1       6.000    3.332   3.332            0.000     -0.664
      5       H      2       1.000    0.199   0.199            0.000      0.601
      6       H      2       1.000    0.193   0.193            0.000      0.613

  Total Charge                                                            0.002
 !-----------------------------------------------------------------------------!

 ENERGY| Total FORCE_EVAL ( QS ) energy (a.u.):              -24.995689422931974


 --------  Informations at step =     1 ------------
  Optimization Method        =                 BFGS
  Total Energy               =       -24.9956894229
  Real energy change         =         7.9574801411
  Predicted change in energy =        -9.2620888792
  Scaling factor             =         0.0845074865
  Step size                  =         0.4724315332
  Trust radius               =         0.4724315332
  Decrease in energy         =                   NO
  Used time                  =                6.193

  Convergence check :
  Max. step size             =         0.4724315332
  Conv. limit for step size  =         0.0030000000
  Convergence in step size   =                   NO
  RMS step size              =         0.2689500029
  Conv. limit for RMS step   =         0.0015000000
  Convergence in RMS step    =                   NO
  Max. gradient              =        19.4173928440
  Conv. limit for gradients  =         0.0004500000
  Conv. for gradients        =                   NO
  RMS gradient               =         7.7700984265
  Conv. limit for RMS grad.  =         0.0003000000
  Conv. for gradients        =                   NO
 ---------------------------------------------------

 --------------------------
 OPTIMIZATION STEP:      2
 --------------------------

  Step is scaled; Scaling factor =  0.05824

 Spin 1

 Number of electrons:                                                          8
 Number of occupied orbitals:                                                  8
 Number of molecular orbitals:                                                 8

 Spin 2

 Number of electrons:                                                          8
 Number of occupied orbitals:                                                  8
 Number of molecular orbitals:                                                 8

 Number of orbital functions:                                                 46
 Number of independent orbital functions:                                     46

 Parameters for the always stable predictor-corrector (ASPC) method:

  ASPC order: 0

  B(1) =   2.000000
  B(2) =  -1.000000

 Parameters for the always stable predictor-corrector (ASPC) method:

  ASPC order: 0

  B(1) =   2.000000
  B(2) =  -1.000000

 Extrapolation method: ASPC


 SCF WAVEFUNCTION OPTIMIZATION

  ----------------------------------- OT ---------------------------------------
  Minimizer      : CG                  : conjugate gradient
  Preconditioner : FULL_ALL            : diagonalization, state selective
  Precond_solver : DEFAULT
  Line search    : 2PNT                : 2 energies, one gradient
  stepsize       :    0.15000000                  energy_gap     :    0.08000000
  eps_taylor     :   0.10000E-15                  max_taylor     :             4
  ----------------------------------- OT ---------------------------------------

  Step     Update method      Time    Convergence         Total energy    Change
  ------------------------------------------------------------------------------
     1 OT CG       0.15E+00    0.2     0.07559310       -33.3929308987 -3.34E+01
     2 OT LS       0.25E+00    0.2                      -33.8348621292
     3 OT CG       0.25E+00    0.3     0.04705372       -33.8743135823 -4.81E-01
     4 OT LS       0.21E+00    0.2                      -33.9992124420
     5 OT CG       0.21E+00    0.3     0.02583491       -34.0028246983 -1.29E-01
     6 OT LS       0.14E+00    0.2                      -34.0298614344
     7 OT CG       0.14E+00    0.3     0.00605714       -34.0379247576 -3.51E-02
     8 OT LS       0.22E+00    0.2                      -34.0405180658
     9 OT CG       0.22E+00    0.3     0.00293714       -34.0408357911 -2.91E-03
    10 OT LS       0.25E+00    0.2                      -34.0416021674
    11 OT CG       0.25E+00    0.3     0.00120300       -34.0416150455 -7.79E-04
    12 OT LS       0.41E+00    0.2                      -34.0417997949
    13 OT CG       0.41E+00    0.3     0.00076202       -34.0418333216 -2.18E-04
    14 OT LS       0.30E+00    0.2                      -34.0418898990
    15 OT CG       0.30E+00    0.3     0.00051157       -34.0418977450 -6.44E-05
    16 OT LS       0.21E+00    0.2                      -34.0419139316
    17 OT CG       0.21E+00    0.3     0.00022746       -34.0419179551 -2.02E-05
    18 OT LS       0.32E+00    0.2                      -34.0419233104
    19 OT CG       0.32E+00    0.3     0.00010200       -34.0419240032 -6.05E-06
    20 OT LS       0.27E+00    0.2                      -34.0419249932
    21 OT CG       0.27E+00    0.3     0.00004130       -34.0419250284 -1.03E-06
    22 OT LS       0.25E+00    0.2                      -34.0419251824
    23 OT CG       0.25E+00    0.3     0.00001448       -34.0419251835 -1.55E-07
    24 OT LS       0.22E+00    0.2                      -34.0419252002
    25 OT CG       0.22E+00    0.3     0.00000702       -34.0419252005 -1.70E-08
    26 OT LS       0.22E+00    0.2                      -34.0419252044
    27 OT CG       0.22E+00    0.3     0.00000318       -34.0419252044 -3.92E-09

  *** SCF run converged in    27 steps ***


  Electronic density on regular grids:        -16.0000000120       -0.0000000120
  Core density on regular grids:               16.0000000000       -0.0000000000
  Total charge density on r-space grids:       -0.0000000121
  Total charge density g-space grids:          -0.0000000121

  Overlap energy of the core charge distribution:               0.00017210773760
  Self energy of the core charge distribution:                -88.69430999347530
  Core Hamiltonian energy:                                     26.71265194852251
  Hartree energy:                                              36.56981156628326
  Exchange-correlation energy:                                 -8.62775890125770
  Dispersion energy:                                           -0.00249193220953

  Total energy:                                               -34.04192520439915

  outer SCF iter =    1 RMS gradient =   0.32E-05 energy =        -34.0419252044
  outer SCF loop converged in   1 iterations or   27 steps


  Integrated absolute spin density  :                               0.0000000000
  Ideal and single determinant S**2 :                    0.000000      -0.000000

 !-----------------------------------------------------------------------------!
                     Mulliken Population Analysis

 #  Atom  Element  Kind  Atomic population (alpha,beta) Net charge  Spin moment
       1     O        1         3.368564     3.368564    -0.737127     0.000000
       2     H        2         0.454849     0.454849     0.090302     0.000000
       3     H        2         0.481716     0.481716     0.036569     0.000000
       4     O        1         2.894310     2.894310     0.211379     0.000000
       5     H        2         0.403409     0.403409     0.193183    -0.000000
       6     H        2         0.397153     0.397153     0.205695     0.000000
 # Total charge and spin        8.000000     8.000000    -0.000000     0.000000

 !-----------------------------------------------------------------------------!

 !-----------------------------------------------------------------------------!
                           Hirshfeld Charges

  #Atom  Element  Kind  Ref Charge     Population       Spin moment  Net charge
      1       O      1       6.000    3.637   3.637            0.000     -1.274
      2       H      2       1.000    0.228   0.228            0.000      0.543
      3       H      2       1.000    0.266   0.266            0.000      0.467
      4       O      1       6.000    3.453   3.453            0.000     -0.906
      5       H      2       1.000    0.215   0.215           -0.000      0.571
      6       H      2       1.000    0.200   0.200            0.000      0.601

  Total Charge                                                            0.002
 !-----------------------------------------------------------------------------!

 ENERGY| Total FORCE_EVAL ( QS ) energy (a.u.):              -32.456772553438192


 --------  Informations at step =     2 ------------
  Optimization Method        =                 BFGS
  Total Energy               =       -32.4567725534
  Real energy change         =        -7.4610831305
  Predicted change in energy =        -2.0713920742
  Scaling factor             =         0.0582448424
  Step size                  =         0.4724315332
  Trust radius               =         0.4724315332
  Decrease in energy         =                   NO
  Used time                  =                7.881

  Convergence check :
  Max. step size             =         0.4724315332
  Conv. limit for step size  =         0.0030000000
  Convergence in step size   =                   NO
  RMS step size              =         0.1652790909
  Conv. limit for RMS step   =         0.0015000000
  Convergence in RMS step    =                   NO
  Max. gradient              =         7.1239302527
  Conv. limit for gradients  =         0.0004500000
  Conv. for gradients        =                   NO
  RMS gradient               =         2.9521750233
  Conv. limit for RMS grad.  =         0.0003000000
  Conv. for gradients        =                   NO
 ---------------------------------------------------

 --------------------------
 OPTIMIZATION STEP:      3
 --------------------------

  Step is scaled; Scaling factor =  0.00002

 Spin 1

 Number of electrons:                                                          8
 Number of occupied orbitals:                                                  8
 Number of molecular orbitals:                                                 8

 Spin 2

 Number of electrons:                                                          8
 Number of occupied orbitals:                                                  8
 Number of molecular orbitals:                                                 8

 Number of orbital functions:                                                 46
 Number of independent orbital functions:                                     46

 Parameters for the always stable predictor-corrector (ASPC) method:

  ASPC order: 1

  B(1) =   2.500000
  B(2) =  -2.000000
  B(3) =   0.500000

 Parameters for the always stable predictor-corrector (ASPC) method:

  ASPC order: 1

  B(1) =   2.500000
  B(2) =  -2.000000
  B(3) =   0.500000

 Extrapolation method: ASPC


 SCF WAVEFUNCTION OPTIMIZATION

  ----------------------------------- OT ---------------------------------------
  Minimizer      : CG                  : conjugate gradient
  Preconditioner : FULL_ALL            : diagonalization, state selective
  Precond_solver : DEFAULT
  Line search    : 2PNT                : 2 energies, one gradient
  stepsize       :    0.15000000                  energy_gap     :    0.08000000
  eps_taylor     :   0.10000E-15                  max_taylor     :             4
  ----------------------------------- OT ---------------------------------------

  Step     Update method      Time    Convergence         Total energy    Change
  ------------------------------------------------------------------------------
     1 OT CG       0.15E+00    0.2     0.08628089       -33.4152073098 -3.34E+01
     2 OT LS       0.31E+00    0.2                      -34.0408360867
     3 OT CG       0.31E+00    0.3     0.03955841       -34.2090921545 -7.94E-01
     4 OT LS       0.22E+00    0.2                      -34.2931318535
     5 OT CG       0.22E+00    0.3     0.02052211       -34.3141992662 -1.05E-01
     6 OT LS       0.20E+00    0.2                      -34.3456326635
     7 OT CG       0.20E+00    0.3     0.00369325       -34.3458379656 -3.16E-02
     8 OT LS       0.30E+00    0.2                      -34.3471958064
     9 OT CG       0.30E+00    0.4     0.00115293       -34.3473577914 -1.52E-03
    10 OT LS       0.23E+00    0.2                      -34.3474555064
    11 OT CG       0.23E+00    0.3     0.00037230       -34.3474682697 -1.10E-04
    12 OT LS       0.34E+00    0.2                      -34.3474837714
    13 OT CG       0.34E+00    0.3     0.00008887       -34.3474857904 -1.75E-05
    14 OT LS       0.21E+00    0.2                      -34.3474861763
    15 OT CG       0.21E+00    0.3     0.00003446       -34.3474864092 -6.19E-07
    16 OT LS       0.27E+00    0.2                      -34.3474865215
    17 OT CG       0.27E+00    0.3     0.00000671       -34.3474865265 -1.17E-07
    18 OT LS       0.29E+00    0.2                      -34.3474865313
    19 OT CG       0.29E+00    0.3     0.00000228       -34.3474865313 -4.79E-09

  *** SCF run converged in    19 steps ***


  Electronic density on regular grids:        -16.0000000025       -0.0000000025
  Core density on regular grids:               16.0000000000       -0.0000000000
  Total charge density on r-space grids:       -0.0000000025
  Total charge density g-space grids:          -0.0000000025

  Overlap energy of the core charge distribution:               0.00000092970994
  Self energy of the core charge distribution:                -88.69430999347530
  Core Hamiltonian energy:                                     26.62621983802705
  Hartree energy:                                              36.37749886551034
  Exchange-correlation energy:                                 -8.65433364416523
  Dispersion energy:                                           -0.00256252691744

  Total energy:                                               -34.34748653131064

  outer SCF iter =    1 RMS gradient =   0.23E-05 energy =        -34.3474865313
  outer SCF loop converged in   1 iterations or   19 steps


  Integrated absolute spin density  :                               0.0000000000
  Ideal and single determinant S**2 :                    0.000000      -0.000000

 !-----------------------------------------------------------------------------!
                     Mulliken Population Analysis

 #  Atom  Element  Kind  Atomic population (alpha,beta) Net charge  Spin moment
       1     O        1         3.154096     3.154096    -0.308193    -0.000000
       2     H        2         0.437210     0.437210     0.125580    -0.000000
       3     H        2         0.500171     0.500171    -0.000342    -0.000000
       4     O        1         3.020597     3.020597    -0.041194     0.000000
       5     H        2         0.442790     0.442790     0.114420     0.000000
       6     H        2         0.445136     0.445136     0.109729     0.000000
 # Total charge and spin        8.000000     8.000000    -0.000000     0.000000

 !-----------------------------------------------------------------------------!

 !-----------------------------------------------------------------------------!
                           Hirshfeld Charges

  #Atom  Element  Kind  Ref Charge     Population       Spin moment  Net charge
      1       O      1       6.000    3.591   3.591           -0.000     -1.182
      2       H      2       1.000    0.215   0.215           -0.000      0.570
      3       H      2       1.000    0.215   0.215           -0.000      0.570
      4       O      1       6.000    3.552   3.552            0.000     -1.105
      5       H      2       1.000    0.214   0.214           -0.000      0.571
      6       H      2       1.000    0.212   0.212            0.000      0.577

  Total Charge                                                            0.001
 !-----------------------------------------------------------------------------!

 ENERGY| Total FORCE_EVAL ( QS ) energy (a.u.):              -31.056996974519212


 --------  Informations at step =     3 ------------
  Optimization Method        =                 BFGS
  Total Energy               =       -31.0569969745
  Real energy change         =         1.3997755789
  Predicted change in energy =       -75.2411847603
  Scaling factor             =         0.0000214383
  Step size                  =         0.4724315332
  Trust radius               =         0.4724315332
  Decrease in energy         =                   NO
  Used time                  =                5.841

  Convergence check :
  Max. step size             =         0.4724315332
  Conv. limit for step size  =         0.0030000000
  Convergence in step size   =                   NO
  RMS step size              =         0.2404472432
  Conv. limit for RMS step   =         0.0015000000
  Convergence in RMS step    =                   NO
  Max. gradient              =        10.0003774702
  Conv. limit for gradients  =         0.0004500000
  Conv. for gradients        =                   NO
  RMS gradient               =         3.8341474174
  Conv. limit for RMS grad.  =         0.0003000000
  Conv. for gradients        =                   NO
 ---------------------------------------------------

 --------------------------
 OPTIMIZATION STEP:      4
 --------------------------

  Step is scaled; Scaling factor =  0.08982

 Spin 1

 Number of electrons:                                                          8
 Number of occupied orbitals:                                                  8
 Number of molecular orbitals:                                                 8

 Spin 2

 Number of electrons:                                                          8
 Number of occupied orbitals:                                                  8
 Number of molecular orbitals:                                                 8

 Number of orbital functions:                                                 46
 Number of independent orbital functions:                                     46

 Parameters for the always stable predictor-corrector (ASPC) method:

  ASPC order: 2

  B(1) =   2.800000
  B(2) =  -2.800000
  B(3) =   1.200000
  B(4) =  -0.200000

 Parameters for the always stable predictor-corrector (ASPC) method:

  ASPC order: 2

  B(1) =   2.800000
  B(2) =  -2.800000
  B(3) =   1.200000
  B(4) =  -0.200000

 Extrapolation method: ASPC


 SCF WAVEFUNCTION OPTIMIZATION

  ----------------------------------- OT ---------------------------------------
  Minimizer      : CG                  : conjugate gradient
  Preconditioner : FULL_ALL            : diagonalization, state selective
  Precond_solver : DEFAULT
  Line search    : 2PNT                : 2 energies, one gradient
  stepsize       :    0.15000000                  energy_gap     :    0.08000000
  eps_taylor     :   0.10000E-15                  max_taylor     :             4
  ----------------------------------- OT ---------------------------------------

  Step     Update method      Time    Convergence         Total energy    Change
  ------------------------------------------------------------------------------
     1 OT CG       0.15E+00    0.2     0.09272049       -33.1835006456 -3.32E+01
     2 OT LS       0.36E+00    0.2                      -33.9355968139
     3 OT CG       0.36E+00    0.3     0.05550557       -34.1672440121 -9.84E-01
     4 OT LS       0.13E+00    0.2                      -33.9999844832
     5 OT CG       0.13E+00    0.3     0.03268292       -34.2525086495 -8.53E-02
     6 OT LS       0.18E+00    0.2                      -34.3193891131
     7 OT CG       0.18E+00    0.3     0.01177615       -34.3252325296 -7.27E-02
     8 OT LS       0.19E+00    0.2                      -34.3350859645
     9 OT CG       0.19E+00    0.3     0.00350743       -34.3350891906 -9.86E-03
    10 OT LS       0.22E+00    0.2                      -34.3360644354
    11 OT CG       0.22E+00    0.3     0.00119885       -34.3360880020 -9.99E-04
    12 OT LS       0.26E+00    0.2                      -34.3362214966
    13 OT CG       0.26E+00    0.3     0.00041635       -34.3362237614 -1.36E-04
    14 OT LS       0.23E+00    0.2                      -34.3362382278
    15 OT CG       0.23E+00    0.3     0.00014202       -34.3362384320 -1.47E-05
    16 OT LS       0.28E+00    0.2                      -34.3362404246
    17 OT CG       0.28E+00    0.3     0.00004308       -34.3362404825 -2.05E-06
    18 OT LS       0.32E+00    0.2                      -34.3362406962
    19 OT CG       0.32E+00    0.3     0.00001912       -34.3362407000 -2.18E-07
    20 OT LS       0.16E+00    0.2                      -34.3362406983
    21 OT CG       0.16E+00    0.3     0.00000542       -34.3362407210 -2.10E-08
    22 OT LS       0.34E+00    0.2                      -34.3362407236
    23 OT CG       0.34E+00    0.3     0.00000172       -34.3362407247 -3.65E-09

  *** SCF run converged in    23 steps ***


  Electronic density on regular grids:        -16.0000001295       -0.0000001295
  Core density on regular grids:               16.0000000000        0.0000000000
  Total charge density on r-space grids:       -0.0000001295
  Total charge density g-space grids:          -0.0000001295

  Overlap energy of the core charge distribution:               0.00000002943131
  Self energy of the core charge distribution:                -88.69430999347530
  Core Hamiltonian energy:                                     26.00903056199068
  Hartree energy:                                              36.83809714845549
  Exchange-correlation energy:                                 -8.48643404819513
  Dispersion energy:                                           -0.00262442287703

  Total energy:                                               -34.33624072466999

  outer SCF iter =    1 RMS gradient =   0.17E-05 energy =        -34.3362407247
  outer SCF loop converged in   1 iterations or   23 steps


  Integrated absolute spin density  :                               0.0000000000
  Ideal and single determinant S**2 :                    0.000000      -0.000000

 !-----------------------------------------------------------------------------!
                     Mulliken Population Analysis

 #  Atom  Element  Kind  Atomic population (alpha,beta) Net charge  Spin moment
       1     O        1         3.280111     3.280111    -0.560222    -0.000000
       2     H        2         0.443464     0.443464     0.113072    -0.000000
       3     H        2         0.430596     0.430596     0.138807    -0.000000
       4     O        1         3.030169     3.030169    -0.060338     0.000000
[...]
     9 OT CG       0.32E+00    0.4     0.00000605       -34.3633517994 -3.17E-08
    10 OT LS       0.25E+00    0.2                      -34.3633518024
    11 OT CG       0.25E+00    0.4     0.00000084       -34.3633518027 -3.32E-09

  *** SCF run converged in    11 steps ***


  Electronic density on regular grids:        -15.9999999181        0.0000000819
  Core density on regular grids:               16.0000000000       -0.0000000000
  Total charge density on r-space grids:        0.0000000819
  Total charge density g-space grids:           0.0000000819

  Overlap energy of the core charge distribution:               0.00000025695191
  Self energy of the core charge distribution:                -88.69430999347530
  Core Hamiltonian energy:                                     26.00459857518799
  Hartree energy:                                              36.83794400312432
  Exchange-correlation energy:                                 -8.50878662145342
  Dispersion energy:                                           -0.00279802301258

  Total energy:                                               -34.36335180267709

  outer SCF iter =    1 RMS gradient =   0.84E-06 energy =        -34.3633518027
  outer SCF loop converged in   1 iterations or   11 steps


  Integrated absolute spin density  :                               0.0000000000
  Ideal and single determinant S**2 :                    0.000000       0.000000

 !-----------------------------------------------------------------------------!
                     Mulliken Population Analysis

 #  Atom  Element  Kind  Atomic population (alpha,beta) Net charge  Spin moment
       1     O        1         3.366308     3.366308    -0.732617     0.000000
       2     H        2         0.463170     0.463170     0.073660    -0.000000
       3     H        2         0.462243     0.462243     0.075513    -0.000000
       4     O        1         2.899683     2.899683     0.200633     0.000000
       5     H        2         0.403399     0.403399     0.193202     0.000000
       6     H        2         0.405195     0.405195     0.189609     0.000000
 # Total charge and spin        8.000000     8.000000     0.000000     0.000000

 !-----------------------------------------------------------------------------!

 !-----------------------------------------------------------------------------!
                           Hirshfeld Charges

  #Atom  Element  Kind  Ref Charge     Population       Spin moment  Net charge
      1       O      1       6.000    3.676   3.676            0.000     -1.351
      2       H      2       1.000    0.232   0.232           -0.000      0.536
      3       H      2       1.000    0.208   0.208           -0.000      0.584
      4       O      1       6.000    3.485   3.485            0.000     -0.970
      5       H      2       1.000    0.201   0.201            0.000      0.598
      6       H      2       1.000    0.198   0.198            0.000      0.604

  Total Charge                                                            0.001
 !-----------------------------------------------------------------------------!

 ENERGY| Total FORCE_EVAL ( QS ) energy (a.u.):              -34.362189489123189


 --------  Informations at step =    19 ------------
  Optimization Method        =                 BFGS
  Total Energy               =       -34.3621894891
  Real energy change         =        -0.0001944892
  Predicted change in energy =        -0.0001474814
  Scaling factor             =         0.3281791113
  Step size                  =         0.0460380330
  Trust radius               =         0.4724315332
  Decrease in energy         =                  YES
  Used time                  =                4.956

  Convergence check :
  Max. step size             =         0.0460380330
  Conv. limit for step size  =         0.0030000000
  Convergence in step size   =                   NO
  RMS step size              =         0.0205795149
  Conv. limit for RMS step   =         0.0015000000
  Convergence in RMS step    =                   NO
  Max. gradient              =         0.0183193540
  Conv. limit for gradients  =         0.0004500000
  Conv. for gradients        =                   NO
  RMS gradient               =         0.0076502350
  Conv. limit for RMS grad.  =         0.0003000000
  Conv. for gradients        =                   NO
 ---------------------------------------------------

 --------------------------
 OPTIMIZATION STEP:     20
 --------------------------

 Spin 1

 Number of electrons:                                                          8
 Number of occupied orbitals:                                                  8
 Number of molecular orbitals:                                                 8

 Spin 2

 Number of electrons:                                                          8
 Number of occupied orbitals:                                                  8
 Number of molecular orbitals:                                                 8

 Number of orbital functions:                                                 46
 Number of independent orbital functions:                                     46

 Parameters for the always stable predictor-corrector (ASPC) method:

  ASPC order: 3

  B(1) =   3.000000
  B(2) =  -3.428571
  B(3) =   1.928571
  B(4) =  -0.571429
  B(5) =   0.071429

 Parameters for the always stable predictor-corrector (ASPC) method:

  ASPC order: 3

  B(1) =   3.000000
  B(2) =  -3.428571
  B(3) =   1.928571
  B(4) =  -0.571429
  B(5) =   0.071429

 Extrapolation method: ASPC


 SCF WAVEFUNCTION OPTIMIZATION

  ----------------------------------- OT ---------------------------------------
  Minimizer      : CG                  : conjugate gradient
  Preconditioner : FULL_ALL            : diagonalization, state selective
  Precond_solver : DEFAULT
  Line search    : 2PNT                : 2 energies, one gradient
  stepsize       :    0.15000000                  energy_gap     :    0.08000000
  eps_taylor     :   0.10000E-15                  max_taylor     :             4
  ----------------------------------- OT ---------------------------------------

  Step     Update method      Time    Convergence         Total energy    Change
  ------------------------------------------------------------------------------
     1 OT CG       0.15E+00    0.2     0.00109403       -34.3631259130 -3.44E+01
     2 OT LS       0.49E+00    0.2                      -34.3632380265
     3 OT CG       0.49E+00    0.3     0.00006659       -34.3633438991 -2.18E-04
     4 OT LS       0.31E+00    0.2                      -34.3633442118
     5 OT CG       0.31E+00    0.3     0.00002268       -34.3633443999 -5.01E-07
     6 OT LS       0.19E+00    0.2                      -34.3633444231
     7 OT CG       0.19E+00    0.3     0.00000547       -34.3633444362 -3.63E-08
     8 OT LS       0.36E+00    0.2                      -34.3633444393
     9 OT CG       0.36E+00    0.3     0.00000145       -34.3633444401 -3.92E-09

  *** SCF run converged in     9 steps ***


  Electronic density on regular grids:        -15.9999998727        0.0000001273
  Core density on regular grids:               16.0000000000       -0.0000000000
  Total charge density on r-space grids:        0.0000001272
  Total charge density g-space grids:           0.0000001272

  Overlap energy of the core charge distribution:               0.00000026500644
  Self energy of the core charge distribution:                -88.69430999347530
  Core Hamiltonian energy:                                     26.01763007180314
  Hartree energy:                                              36.82859962836123
  Exchange-correlation energy:                                 -8.51246845192324
  Dispersion energy:                                           -0.00279595986228

  Total energy:                                               -34.36334444009002

  outer SCF iter =    1 RMS gradient =   0.14E-05 energy =        -34.3633444401
  outer SCF loop converged in   1 iterations or    9 steps


  Integrated absolute spin density  :                               0.0000000000
  Ideal and single determinant S**2 :                    0.000000       0.000000

 !-----------------------------------------------------------------------------!
                     Mulliken Population Analysis

 #  Atom  Element  Kind  Atomic population (alpha,beta) Net charge  Spin moment
       1     O        1         3.366223     3.366223    -0.732446    -0.000000
       2     H        2         0.463462     0.463462     0.073076    -0.000000
       3     H        2         0.462611     0.462611     0.074777    -0.000000
       4     O        1         2.896899     2.896899     0.206203    -0.000000
       5     H        2         0.404573     0.404573     0.190853     0.000000
       6     H        2         0.406231     0.406231     0.187537    -0.000000
 # Total charge and spin        8.000000     8.000000     0.000000    -0.000000

 !-----------------------------------------------------------------------------!

 !-----------------------------------------------------------------------------!
                           Hirshfeld Charges

  #Atom  Element  Kind  Ref Charge     Population       Spin moment  Net charge
      1       O      1       6.000    3.676   3.676           -0.000     -1.352
      2       H      2       1.000    0.232   0.232           -0.000      0.536
      3       H      2       1.000    0.208   0.208           -0.000      0.584
      4       O      1       6.000    3.484   3.484           -0.000     -0.968
      5       H      2       1.000    0.201   0.201            0.000      0.597
      6       H      2       1.000    0.198   0.198           -0.000      0.603

  Total Charge                                                            0.001
 !-----------------------------------------------------------------------------!

 ENERGY| Total FORCE_EVAL ( QS ) energy (a.u.):              -34.362370620592721


 --------  Informations at step =    20 ------------
  Optimization Method        =                 BFGS
  Total Energy               =       -34.3623706206
  Real energy change         =        -0.0001811315
  Predicted change in energy =        -0.0001191575
  Scaling factor             =         0.3281791113
  Step size                  =         0.0210861230
  Trust radius               =         0.4724315332
  Decrease in energy         =                  YES
  Used time                  =                3.505

  Convergence check :
  Max. step size             =         0.0210861230
  Conv. limit for step size  =         0.0030000000
  Convergence in step size   =                   NO
  RMS step size              =         0.0116823565
  Conv. limit for RMS step   =         0.0015000000
  Convergence in RMS step    =                   NO
  Max. gradient              =         0.0103180556
  Conv. limit for gradients  =         0.0004500000
  Conv. for gradients        =                   NO
  RMS gradient               =         0.0042798482
  Conv. limit for RMS grad.  =         0.0003000000
  Conv. for gradients        =                   NO
 ---------------------------------------------------

 --------------------------
 OPTIMIZATION STEP:     21
 --------------------------

 Spin 1

 Number of electrons:                                                          8
 Number of occupied orbitals:                                                  8
 Number of molecular orbitals:                                                 8

 Spin 2

 Number of electrons:                                                          8
 Number of occupied orbitals:                                                  8
 Number of molecular orbitals:                                                 8

 Number of orbital functions:                                                 46
 Number of independent orbital functions:                                     46

 Parameters for the always stable predictor-corrector (ASPC) method:

  ASPC order: 3

  B(1) =   3.000000
  B(2) =  -3.428571
  B(3) =   1.928571
  B(4) =  -0.571429
  B(5) =   0.071429

 Parameters for the always stable predictor-corrector (ASPC) method:

  ASPC order: 3

  B(1) =   3.000000
  B(2) =  -3.428571
  B(3) =   1.928571
  B(4) =  -0.571429
  B(5) =   0.071429

 Extrapolation method: ASPC


 SCF WAVEFUNCTION OPTIMIZATION

  ----------------------------------- OT ---------------------------------------
  Minimizer      : CG                  : conjugate gradient
  Preconditioner : FULL_ALL            : diagonalization, state selective
  Precond_solver : DEFAULT
  Line search    : 2PNT                : 2 energies, one gradient
  stepsize       :    0.15000000                  energy_gap     :    0.08000000
  eps_taylor     :   0.10000E-15                  max_taylor     :             4
  ----------------------------------- OT ---------------------------------------

  Step     Update method      Time    Convergence         Total energy    Change
  ------------------------------------------------------------------------------
     1 OT CG       0.15E+00    0.2     0.00083036       -34.3632291884 -3.44E+01
     2 OT LS       0.48E+00    0.2                      -34.3632933326
     3 OT CG       0.48E+00    0.3     0.00023917       -34.3633501046 -1.21E-04
     4 OT LS       0.16E+00    0.2                      -34.3633409343
     5 OT CG       0.16E+00    0.3     0.00002617       -34.3633535446 -3.44E-06
     6 OT LS       0.34E+00    0.2                      -34.3633536070
     7 OT CG       0.34E+00    0.3     0.00000440       -34.3633536295 -8.49E-08

  *** SCF run converged in     7 steps ***


  Electronic density on regular grids:        -15.9999998226        0.0000001774
  Core density on regular grids:               16.0000000000        0.0000000000
  Total charge density on r-space grids:        0.0000001774
  Total charge density g-space grids:           0.0000001774

  Overlap energy of the core charge distribution:               0.00000027213470
  Self energy of the core charge distribution:                -88.69430999347530
  Core Hamiltonian energy:                                     26.02122709586286
  Hartree energy:                                              36.82599691372596
  Exchange-correlation energy:                                 -8.51347021708586
  Dispersion energy:                                           -0.00279770064485

  Total energy:                                               -34.36335362948250

  outer SCF iter =    1 RMS gradient =   0.44E-05 energy =        -34.3633536295
  outer SCF loop converged in   1 iterations or    7 steps


  Integrated absolute spin density  :                               0.0000000000
  Ideal and single determinant S**2 :                    0.000000      -0.000000

 !-----------------------------------------------------------------------------!
                     Mulliken Population Analysis

 #  Atom  Element  Kind  Atomic population (alpha,beta) Net charge  Spin moment
       1     O        1         3.367247     3.367247    -0.734493    -0.000000
       2     H        2         0.463655     0.463655     0.072690    -0.000000
       3     H        2         0.462233     0.462233     0.075534    -0.000000
       4     O        1         2.894828     2.894828     0.210343    -0.000000
       5     H        2         0.405231     0.405231     0.189537    -0.000000
       6     H        2         0.406805     0.406805     0.186390    -0.000000
 # Total charge and spin        8.000000     8.000000    -0.000000    -0.000000

 !-----------------------------------------------------------------------------!

 !-----------------------------------------------------------------------------!
                           Hirshfeld Charges

  #Atom  Element  Kind  Ref Charge     Population       Spin moment  Net charge
      1       O      1       6.000    3.677   3.677           -0.000     -1.353
      2       H      2       1.000    0.232   0.232           -0.000      0.536
      3       H      2       1.000    0.208   0.208           -0.000      0.584
      4       O      1       6.000    3.484   3.484           -0.000     -0.967
      5       H      2       1.000    0.202   0.202           -0.000      0.597
      6       H      2       1.000    0.198   0.198           -0.000      0.604

  Total Charge                                                            0.001
 !-----------------------------------------------------------------------------!

 ENERGY| Total FORCE_EVAL ( QS ) energy (a.u.):              -34.362573386573104


 --------  Informations at step =    21 ------------
  Optimization Method        =                 BFGS
  Total Energy               =       -34.3625733866
  Real energy change         =        -0.0002027660
  Predicted change in energy =        -0.0001695956
  Scaling factor             =         0.3281791113
  Step size                  =         0.0385926339
  Trust radius               =         0.4724315332
  Decrease in energy         =                  YES
  Used time                  =                2.738

  Convergence check :
  Max. step size             =         0.0385926339
  Conv. limit for step size  =         0.0030000000
  Convergence in step size   =                   NO
  RMS step size              =         0.0178862235
  Conv. limit for RMS step   =         0.0015000000
  Convergence in RMS step    =                   NO
  Max. gradient              =         0.0189286740
  Conv. limit for gradients  =         0.0004500000
  Conv. for gradients        =                   NO
  RMS gradient               =         0.0077065402
  Conv. limit for RMS grad.  =         0.0003000000
  Conv. for gradients        =                   NO
 ---------------------------------------------------

 --------------------------
 OPTIMIZATION STEP:     22
 --------------------------

 Spin 1

 Number of electrons:                                                          8
 Number of occupied orbitals:                                                  8
 Number of molecular orbitals:                                                 8

 Spin 2

 Number of electrons:                                                          8
 Number of occupied orbitals:                                                  8
 Number of molecular orbitals:                                                 8

 Number of orbital functions:                                                 46
 Number of independent orbital functions:                                     46

 Parameters for the always stable predictor-corrector (ASPC) method:

  ASPC order: 3

  B(1) =   3.000000
  B(2) =  -3.428571
  B(3) =   1.928571
  B(4) =  -0.571429
  B(5) =   0.071429

 Parameters for the always stable predictor-corrector (ASPC) method:

  ASPC order: 3

  B(1) =   3.000000
  B(2) =  -3.428571
  B(3) =   1.928571
  B(4) =  -0.571429
  B(5) =   0.071429

 Extrapolation method: ASPC


 SCF WAVEFUNCTION OPTIMIZATION

  ----------------------------------- OT ---------------------------------------
  Minimizer      : CG                  : conjugate gradient
  Preconditioner : FULL_ALL            : diagonalization, state selective
  Precond_solver : DEFAULT
  Line search    : 2PNT                : 2 energies, one gradient
  stepsize       :    0.15000000                  energy_gap     :    0.08000000
  eps_taylor     :   0.10000E-15                  max_taylor     :             4
  ----------------------------------- OT ---------------------------------------

  Step     Update method      Time    Convergence         Total energy    Change
  ------------------------------------------------------------------------------
     1 OT CG       0.15E+00    0.2     0.00058302       -34.3634759948 -3.44E+01
     2 OT LS       0.48E+00    0.2                      -34.3635076329
