 DBCSR| Multiplication driver                                               BLAS
 DBCSR| Multrec recursion limit                                              512
 DBCSR| Multiplication stack size                                           1000
 DBCSR| Maximum elements for images                                    UNLIMITED
 DBCSR| Multiplicative factor virtual images                                   1
 DBCSR| Multiplication size stacks                                             3
 DBCSR| Number of 3D layers                                               SINGLE
 DBCSR| Use MPI memory allocation                                              T
 DBCSR| Use RMA algorithm                                                      F
 DBCSR| Use Communication thread                                               T
 DBCSR| Communication thread load                                             87


  **** **** ******  **  PROGRAM STARTED AT               2019-07-08 17:52:51.790
 ***** ** ***  *** **   PROGRAM STARTED ON        blg9135.int.ets1.calculquebec.
 **    ****   ******    PROGRAM STARTED BY                                   rzk
 ***** **    ** ** **   PROGRAM PROCESS ID                                334261
  **** **  *******  **  PROGRAM STARTED IN /lustre04/scratch/rzk/rzk/GaN-carbene
                                           /443-adatoms-both-2x2/09-BondBreaking
                                           -CH/02-0401-CH-to-NTop-PES/PRACTICE

 CP2K| version string:                    CP2K version 7.0 (Development Version)
 CP2K| source code revision number:                                    svn:18619
 CP2K| cp2kflags: libint fftw3 libxc parallel mpi3 scalapack mkl                
 CP2K| is freely available from                            https://www.cp2k.org/
 CP2K| Program compiled at                          Sun Apr  7 00:48:11 EDT 2019
 CP2K| Program compiled on                      beluga2.int.ets1.calculquebec.ca
 CP2K| Program compiled for                    Beluga-Linux-x86-64-intel-openmpi
 CP2K| Data directory path    /home/rzk/projects/def-rzk/group/cp2k/cp2k-mcgill/
 CP2K| Input file name                                            TEST-1.restart
 
 GLOBAL| Force Environment number                                              1
 GLOBAL| Basis set file name                                        BASIS_MOLOPT
 GLOBAL| Potential file name                                      GTH_POTENTIALS
 GLOBAL| MM Potential file name                                     MM_POTENTIAL
 GLOBAL| Coordinate file name                                      __STD_INPUT__
 GLOBAL| Method name                                                        CP2K
 GLOBAL| Project name                                                       TEST
 GLOBAL| Preferred FFT library                                             FFTW3
 GLOBAL| Preferred diagonalization lib.                                       SL
 GLOBAL| Run type                                                        GEO_OPT
 GLOBAL| All-to-all communication in single precision                          F
 GLOBAL| FFTs using library dependent lengths                                  F
 GLOBAL| Global print level                                               MEDIUM
 GLOBAL| MPI I/O enabled                                                       T
 GLOBAL| Total number of message passing processes                            40
 GLOBAL| Number of threads for this process                                    1
 GLOBAL| This output is from process                                           0
 GLOBAL| CPU model name :  Intel(R) Xeon(R) Gold 6148 CPU @ 2.40GHz

 MEMORY| system memory details [Kb]
 MEMORY|                        rank 0           min           max       average
 MEMORY| MemTotal            196614300     196614300     196614300     196614300
 MEMORY| MemFree             183590172     183590172     183590172     183590172
 MEMORY| Buffers                     0             0             0             0
 MEMORY| Cached                1687328       1687328       1687328       1687328
 MEMORY| Slab                   968168        968168        968168        968168
 MEMORY| SReclaimable           113224        113224        113224        113224
 MEMORY| MemLikelyFree       185390724     185390724     185390724     185390724


 *** Fundamental physical constants (SI units) ***

 *** Literature: B. J. Mohr and B. N. Taylor,
 ***             CODATA recommended values of the fundamental physical
 ***             constants: 2006, Web Version 5.1
 ***             http://physics.nist.gov/constants

 Speed of light in vacuum [m/s]                             2.99792458000000E+08
 Magnetic constant or permeability of vacuum [N/A**2]       1.25663706143592E-06
 Electric constant or permittivity of vacuum [F/m]          8.85418781762039E-12
 Planck constant (h) [J*s]                                  6.62606896000000E-34
 Planck constant (h-bar) [J*s]                              1.05457162825177E-34
 Elementary charge [C]                                      1.60217648700000E-19
 Electron mass [kg]                                         9.10938215000000E-31
 Electron g factor [ ]                                     -2.00231930436220E+00
 Proton mass [kg]                                           1.67262163700000E-27
 Fine-structure constant                                    7.29735253760000E-03
 Rydberg constant [1/m]                                     1.09737315685270E+07
 Avogadro constant [1/mol]                                  6.02214179000000E+23
 Boltzmann constant [J/K]                                   1.38065040000000E-23
 Atomic mass unit [kg]                                      1.66053878200000E-27
 Bohr radius [m]                                            5.29177208590000E-11

 *** Conversion factors ***

 [u] -> [a.u.]                                              1.82288848426455E+03
 [Angstrom] -> [Bohr] = [a.u.]                              1.88972613288564E+00
 [a.u.] = [Bohr] -> [Angstrom]                              5.29177208590000E-01
 [a.u.] -> [s]                                              2.41888432650478E-17
 [a.u.] -> [fs]                                             2.41888432650478E-02
 [a.u.] -> [J]                                              4.35974393937059E-18
 [a.u.] -> [N]                                              8.23872205491840E-08
 [a.u.] -> [K]                                              3.15774647902944E+05
 [a.u.] -> [kJ/mol]                                         2.62549961709828E+03
 [a.u.] -> [kcal/mol]                                       6.27509468713739E+02
 [a.u.] -> [Pa]                                             2.94210107994716E+13
 [a.u.] -> [bar]                                            2.94210107994716E+08
 [a.u.] -> [atm]                                            2.90362800883016E+08
 [a.u.] -> [eV]                                             2.72113838565563E+01
 [a.u.] -> [Hz]                                             6.57968392072181E+15
 [a.u.] -> [1/cm] (wave numbers)                            2.19474631370540E+05
 [a.u./Bohr**2] -> [1/cm]                                   5.14048714338585E+03
 
          ----------------------------------------------------------------------
 COLVARS| COLVAR INPUT INDEX:        1
 COLVARS| BOND          >>> ATOMS:                                     3       4
          ----------------------------------------------------------------------

 CELL_TOP| Volume [angstrom^3]:                                          125.000
 CELL_TOP| Vector a [angstrom     5.000     0.000     0.000    |a| =       5.000
 CELL_TOP| Vector b [angstrom     0.000     5.000     0.000    |b| =       5.000
 CELL_TOP| Vector c [angstrom     0.000     0.000     5.000    |c| =       5.000
 CELL_TOP| Angle (b,c), alpha [degree]:                                   90.000
 CELL_TOP| Angle (a,c), beta  [degree]:                                   90.000
 CELL_TOP| Angle (a,b), gamma [degree]:                                   90.000
 CELL_TOP| Numerically orthorhombic:                                         YES
 RESTRAINT| Active restraint on COLLECTIVE section Nr.     1. K [a.u.]=10.000000
 
 GENERATE|  Preliminary Number of Bonds generated:                             0
 GENERATE|  Achieved consistency in connectivity generation.

 CELL| Volume [angstrom^3]:                                              125.000
 CELL| Vector a [angstrom]:       5.000     0.000     0.000    |a| =       5.000
 CELL| Vector b [angstrom]:       0.000     5.000     0.000    |b| =       5.000
 CELL| Vector c [angstrom]:       0.000     0.000     5.000    |c| =       5.000
 CELL| Angle (b,c), alpha [degree]:                                       90.000
 CELL| Angle (a,c), beta  [degree]:                                       90.000
 CELL| Angle (a,b), gamma [degree]:                                       90.000
 CELL| Numerically orthorhombic:                                             YES

 CELL_REF| Volume [angstrom^3]:                                          125.000
 CELL_REF| Vector a [angstrom     5.000     0.000     0.000    |a| =       5.000
 CELL_REF| Vector b [angstrom     0.000     5.000     0.000    |b| =       5.000
 CELL_REF| Vector c [angstrom     0.000     0.000     5.000    |c| =       5.000
 CELL_REF| Angle (b,c), alpha [degree]:                                   90.000
 CELL_REF| Angle (a,c), beta  [degree]:                                   90.000
 CELL_REF| Angle (a,b), gamma [degree]:                                   90.000
 CELL_REF| Numerically orthorhombic:                                         YES

 *******************************************************************************
 *******************************************************************************
 **                                                                           **
 **     #####                         ##              ##                      **
 **    ##   ##            ##          ##              ##                      **
 **   ##     ##                       ##            ######                    **
 **   ##     ##  ##   ##  ##   #####  ##  ##   ####   ##    #####    #####    **
 **   ##     ##  ##   ##  ##  ##      ## ##   ##      ##   ##   ##  ##   ##   **
 **   ##  ## ##  ##   ##  ##  ##      ####     ###    ##   ######   ######    **
 **    ##  ###   ##   ##  ##  ##      ## ##      ##   ##   ##       ##        **
 **     #######   #####   ##   #####  ##  ##  ####    ##    #####   ##        **
 **           ##                                                    ##        **
 **                                                                           **
 **                                                ... make the atoms dance   **
 **                                                                           **
 **            Copyright (C) by CP2K developers group (2000 - 2018)           **
 **                                                                           **
 *******************************************************************************

 DFT| Spin unrestricted (spin-polarized) Kohn-Sham calculation               UKS
 DFT| Multiplicity                                                             1
 DFT| Number of spin states                                                    2
 DFT| Charge                                                                   0
 DFT| Self-interaction correction (SIC)                                       NO
 DFT| Cutoffs: density                                              1.000000E-10
 DFT|          gradient                                             1.000000E-10
 DFT|          tau                                                  1.000000E-10
 DFT|          cutoff_smoothing_range                               0.000000E+00
 DFT| XC density smoothing                                                  NONE
 DFT| XC derivatives                                                          PW
 FUNCTIONAL| ROUTINE=NEW
 FUNCTIONAL| PBE:
 FUNCTIONAL| J.P.Perdew, K.Burke, M.Ernzerhof, Phys. Rev. Letter, vol. 77, n 18,
 FUNCTIONAL|  pp. 3865-3868, (1996){spin polarized}                             
 vdW POTENTIAL|                                                   Pair Potential
 vdW POTENTIAL|          DFT-D3 (Version 3.1)
 vdW POTENTIAL|          Potential Form: S. Grimme et al, JCP 132: 154104 (2010)
 vdW POTENTIAL|          Zero Damping
 vdW POTENTIAL|          Cutoff Radius [Bohr]:                             18.90
 vdW POTENTIAL|          s6 Scaling Factor:                               1.0000
 vdW POTENTIAL|          sr6 Scaling Factor:                              1.2170
 vdW POTENTIAL|          s8 Scaling Factor:                               0.7220
 vdW POTENTIAL|          Cutoff for CN calculation:                   0.1000E-05

 QS| Method:                                                                 GPW
 QS| Density plane wave grid type                        NON-SPHERICAL FULLSPACE
 QS| Number of grid levels:                                                    5
 QS| Density cutoff [a.u.]:                                                150.0
 QS| Multi grid cutoff [a.u.]: 1) grid level                               150.0
 QS|                           2) grid level                                50.0
 QS|                           3) grid level                                16.7
 QS|                           4) grid level                                 5.6
 QS|                           5) grid level                                 1.9
 QS| Grid level progression factor:                                          3.0
 QS| Relative density cutoff [a.u.]:                                        20.0
 QS| Consistent realspace mapping and integration 
 QS| Interaction thresholds: eps_pgf_orb:                                1.0E-07
 QS|                         eps_filter_matrix:                          0.0E+00
 QS|                         eps_core_charge:                            1.0E-16
 QS|                         eps_rho_gspace:                             1.0E-14
 QS|                         eps_rho_rspace:                             1.0E-14
 QS|                         eps_gvg_rspace:                             1.0E-07
 QS|                         eps_ppl:                                    1.0E-02
 QS|                         eps_ppnl:                                   1.0E-09


 ATOMIC KIND INFORMATION

  1. Atomic kind: O                                     Number of atoms:       2

     Orbital Basis Set                                     DZVP-MOLOPT-SR-GTH-q6

       Number of orbital shell sets:                                           1
       Number of orbital shells:                                               5
       Number of primitive Cartesian functions:                                5
       Number of Cartesian basis functions:                                   14
       Number of spherical basis functions:                                   13
       Norm type:                                                              2

       Normalised Cartesian orbitals:

                        Set   Shell   Orbital            Exponent    Coefficient

                          1       1    2s               10.389228       0.396646
                                                         3.849621       0.208811
                                                         1.388401      -0.301641
                                                         0.496955      -0.274061
                                                         0.162492      -0.033677

                          1       2    3s               10.389228       0.303673
                                                         3.849621       0.240943
                                                         1.388401      -0.313066
                                                         0.496955      -0.043055
                                                         0.162492       0.213991

                          1       3    3px              10.389228      -1.530415
                                                         3.849621      -1.371928
                                                         1.388401      -0.761951
                                                         0.496955      -0.253695
                                                         0.162492      -0.035541
                          1       3    3py              10.389228      -1.530415
                                                         3.849621      -1.371928
                                                         1.388401      -0.761951
                                                         0.496955      -0.253695
                                                         0.162492      -0.035541
                          1       3    3pz              10.389228      -1.530415
                                                         3.849621      -1.371928
                                                         1.388401      -0.761951
                                                         0.496955      -0.253695
                                                         0.162492      -0.035541

                          1       4    4px              10.389228      -0.565392
                                                         3.849621      -0.038231
                                                         1.388401      -0.382373
                                                         0.496955       0.179070
                                                         0.162492       0.122714
                          1       4    4py              10.389228      -0.565392
                                                         3.849621      -0.038231
                                                         1.388401      -0.382373
                                                         0.496955       0.179070
                                                         0.162492       0.122714
                          1       4    4pz              10.389228      -0.565392
                                                         3.849621      -0.038231
                                                         1.388401      -0.382373
                                                         0.496955       0.179070
                                                         0.162492       0.122714

                          1       5    4dx2             10.389228       1.867377
                                                         3.849621       0.670994
                                                         1.388401       1.353441
                                                         0.496955       0.273538
                                                         0.162492       0.006620
                          1       5    4dxy             10.389228       3.234392
                                                         3.849621       1.162195
                                                         1.388401       2.344229
                                                         0.496955       0.473781
                                                         0.162492       0.011466
                          1       5    4dxz             10.389228       3.234392
                                                         3.849621       1.162195
                                                         1.388401       2.344229
                                                         0.496955       0.473781
                                                         0.162492       0.011466
                          1       5    4dy2             10.389228       1.867377
                                                         3.849621       0.670994
                                                         1.388401       1.353441
                                                         0.496955       0.273538
                                                         0.162492       0.006620
                          1       5    4dyz             10.389228       3.234392
                                                         3.849621       1.162195
                                                         1.388401       2.344229
                                                         0.496955       0.473781
                                                         0.162492       0.011466
                          1       5    4dz2             10.389228       1.867377
                                                         3.849621       0.670994
                                                         1.388401       1.353441
                                                         0.496955       0.273538
                                                         0.162492       0.006620

     GTH Potential information for                                    GTH-PBE-q6

       Description:                       Goedecker-Teter-Hutter pseudopotential
                                           Goedecker et al., PRB 54, 1703 (1996)
                                          Hartwigsen et al., PRB 58, 3641 (1998)
                                                      Krack, TCA 114, 145 (2005)

       Gaussian exponent of the core charge distribution:               8.360253
       Electronic configuration (s p d ...):                               2   4

       Parameters of the local part of the GTH pseudopotential:

                          rloc        C1          C2          C3          C4
                        0.244554  -16.667215    2.487311

       Parameters of the non-local part of the GTH pseudopotential:

                   l      r(l)      h(i,j,l)

                   0    0.220956   18.337458
                   1    0.211332

  2. Atomic kind: H                                     Number of atoms:       4

     Orbital Basis Set                                     DZVP-MOLOPT-SR-GTH-q1

       Number of orbital shell sets:                                           1
       Number of orbital shells:                                               3
       Number of primitive Cartesian functions:                                5
       Number of Cartesian basis functions:                                    5
       Number of spherical basis functions:                                    5
       Norm type:                                                              2

       Normalised Cartesian orbitals:

                        Set   Shell   Orbital            Exponent    Coefficient

                          1       1    2s               10.068468      -0.133023
                                                         2.680223      -0.177618
                                                         0.791502      -0.258419
                                                         0.239116      -0.107525
                                                         0.082193      -0.014019

                          1       2    3s               10.068468       0.344673
                                                         2.680223       1.819821
                                                         0.791502      -0.999069
                                                         0.239116       0.017430
                                                         0.082193       0.082660

                          1       3    3px              10.068468       0.155326
                                                         2.680223       0.367157
                                                         0.791502       0.311480
                                                         0.239116       0.080105
                                                         0.082193       0.033440
                          1       3    3py              10.068468       0.155326
                                                         2.680223       0.367157
                                                         0.791502       0.311480
                                                         0.239116       0.080105
                                                         0.082193       0.033440
                          1       3    3pz              10.068468       0.155326
                                                         2.680223       0.367157
                                                         0.791502       0.311480
                                                         0.239116       0.080105
                                                         0.082193       0.033440

     GTH Potential information for                                    GTH-PBE-q1

       Description:                       Goedecker-Teter-Hutter pseudopotential
                                           Goedecker et al., PRB 54, 1703 (1996)
                                          Hartwigsen et al., PRB 58, 3641 (1998)
                                                      Krack, TCA 114, 145 (2005)

       Gaussian exponent of the core charge distribution:              12.500000
       Electronic configuration (s p d ...):                                   1

       Parameters of the local part of the GTH pseudopotential:

                          rloc        C1          C2          C3          C4
                        0.200000   -4.178900    0.724463


 MOLECULE KIND INFORMATION


 All atoms are their own molecule, skipping detailed information


 TOTAL NUMBERS AND MAXIMUM NUMBERS

  Total number of            - Atomic kinds:                                   2
                             - Atoms:                                          6
                             - Shell sets:                                     6
                             - Shells:                                        22
                             - Primitive Cartesian functions:                 30
                             - Cartesian basis functions:                     48
                             - Spherical basis functions:                     46

  Maximum angular momentum of- Orbital basis functions:                        2
                             - Local part of the GTH pseudopotential:          2
                             - Non-local part of the GTH pseudopotential:      0


 MODULE QUICKSTEP:  ATOMIC COORDINATES IN angstrom

  Atom  Kind  Element       X           Y           Z          Z(eff)       Mass

       1     1 O    8   -1.391617    0.193955   -0.838809      6.00      15.9994
       2     2 H    1   -1.411169    1.142570   -1.022476      1.00       1.0079
       3     2 H    1   -0.478888    0.047755   -0.403765      1.00       1.0079
       4     1 O    8    0.833994   -0.190340    0.282692      6.00      15.9994
       5     2 H    1    0.866198    0.129730    1.195537      1.00       1.0079
       6     2 H    1    1.759268   -0.109351   -0.055648      1.00       1.0079




 SCF PARAMETERS         Density guess:                                    ATOMIC
                        --------------------------------------------------------
                        max_scf:                                              80
                        max_scf_history:                                       0
                        max_diis:                                              4
                        --------------------------------------------------------
                        eps_scf:                                        5.00E-06
                        eps_scf_history:                                0.00E+00
                        eps_diis:                                       1.00E-01
                        eps_eigval:                                     1.00E-05
                        --------------------------------------------------------
                        level_shift [a.u.]:                                 0.00
                        --------------------------------------------------------
                        Outer loop SCF in use 
                        No variables optimised in outer loop
                        eps_scf                                         5.00E-06
                        max_scf                                                4
                        No outer loop optimization
                        step_size                                       5.00E-01

 PW_GRID| Information for grid number                                          1
 PW_GRID| Grid distributed over                                    40 processors
 PW_GRID| Real space group dimensions                                    40    1
 PW_GRID| the grid is blocked:                                                NO
 PW_GRID| Cutoff [a.u.]                                                    150.0
 PW_GRID| spherical cutoff:                                                   NO
 PW_GRID|   Bounds   1            -27      26                Points:          54
 PW_GRID|   Bounds   2            -27      26                Points:          54
 PW_GRID|   Bounds   3            -27      26                Points:          54
 PW_GRID| Volume element (a.u.^3)  0.5357E-02     Volume (a.u.^3)       843.5418
 PW_GRID| Grid span                                                    FULLSPACE
 PW_GRID|   Distribution                         Average         Max         Min
 PW_GRID|   G-Vectors                             3936.6        3942        3888
 PW_GRID|   G-Rays                                  72.9          73          72
 PW_GRID|   Real Space Points                     3936.6        5832        2916

 PW_GRID| Information for grid number                                          2
 PW_GRID| Grid distributed over                                    40 processors
 PW_GRID| Real space group dimensions                                     5    8
 PW_GRID| the grid is blocked:                                                NO
 PW_GRID| Cutoff [a.u.]                                                     50.0
 PW_GRID| spherical cutoff:                                                   NO
 PW_GRID|   Bounds   1            -16      15                Points:          32
 PW_GRID|   Bounds   2            -16      15                Points:          32
 PW_GRID|   Bounds   3            -16      15                Points:          32
 PW_GRID| Volume element (a.u.^3)  0.2574E-01     Volume (a.u.^3)       843.5418
 PW_GRID| Grid span                                                    FULLSPACE
 PW_GRID|   Distribution                         Average         Max         Min
 PW_GRID|   G-Vectors                              819.2         896         768
 PW_GRID|   G-Rays                                  25.6          28          24
 PW_GRID|   Real Space Points                      819.2         896         768

 PW_GRID| Information for grid number                                          3
 PW_GRID| Grid distributed over                                    40 processors
 PW_GRID| Real space group dimensions                                     5    8
 PW_GRID| the grid is blocked:                                                NO
 PW_GRID| Cutoff [a.u.]                                                     16.7
 PW_GRID| spherical cutoff:                                                   NO
 PW_GRID|   Bounds   1             -9       8                Points:          18
 PW_GRID|   Bounds   2             -9       8                Points:          18
 PW_GRID|   Bounds   3             -9       8                Points:          18
 PW_GRID| Volume element (a.u.^3)  0.1446         Volume (a.u.^3)       843.5418
 PW_GRID| Grid span                                                    FULLSPACE
 PW_GRID|   Distribution                         Average         Max         Min
 PW_GRID|   G-Vectors                              145.8         180         126
 PW_GRID|   G-Rays                                   8.1          10           7
 PW_GRID|   Real Space Points                      145.8         216         108

 PW_GRID| Information for grid number                                          4
 PW_GRID| Grid distributed over                                    40 processors
 PW_GRID| Real space group dimensions                                     5    8
 PW_GRID| the grid is blocked:                                                NO
 PW_GRID| Cutoff [a.u.]                                                      5.6
 PW_GRID| spherical cutoff:                                                   NO
 PW_GRID|   Bounds   1             -6       5                Points:          12
 PW_GRID|   Bounds   2             -6       5                Points:          12
 PW_GRID|   Bounds   3             -6       5                Points:          12
 PW_GRID| Volume element (a.u.^3)  0.4882         Volume (a.u.^3)       843.5418
 PW_GRID| Grid span                                                    FULLSPACE
 PW_GRID|   Distribution                         Average         Max         Min
 PW_GRID|   G-Vectors                               43.2          60          36
 PW_GRID|   G-Rays                                   3.6           5           3
 PW_GRID|   Real Space Points                       43.2          72          24

 PW_GRID| Information for grid number                                          5
 PW_GRID| Grid distributed over                                    40 processors
 PW_GRID| Real space group dimensions                                     5    8
 PW_GRID| the grid is blocked:                                                NO
 PW_GRID| Cutoff [a.u.]                                                      1.9
 PW_GRID| spherical cutoff:                                                   NO
 PW_GRID|   Bounds   1             -3       2                Points:           6
 PW_GRID|   Bounds   2             -3       2                Points:           6
 PW_GRID|   Bounds   3             -3       2                Points:           6
 PW_GRID| Volume element (a.u.^3)   3.905         Volume (a.u.^3)       843.5418
 PW_GRID| Grid span                                                    FULLSPACE
 PW_GRID|   Distribution                         Average         Max         Min
 PW_GRID|   G-Vectors                                5.4          12           0
 PW_GRID|   G-Rays                                   0.9           2           0
 PW_GRID|   Real Space Points                        5.4          12           0

 POISSON| Solver                                                        PERIODIC
 POISSON| Periodicity                                                        XYZ

 RS_GRID| Information for grid number                                          1
 RS_GRID|   Bounds   1            -27      26                Points:          54
 RS_GRID|   Bounds   2            -27      26                Points:          54
 RS_GRID|   Bounds   3            -27      26                Points:          54
 RS_GRID| Real space fully replicated
 RS_GRID| Group size                                                           1

 RS_GRID| Information for grid number                                          2
 RS_GRID|   Bounds   1            -16      15                Points:          32
 RS_GRID|   Bounds   2            -16      15                Points:          32
 RS_GRID|   Bounds   3            -16      15                Points:          32
 RS_GRID| Real space fully replicated
 RS_GRID| Group size                                                           1

 RS_GRID| Information for grid number                                          3
 RS_GRID|   Bounds   1             -9       8                Points:          18
 RS_GRID|   Bounds   2             -9       8                Points:          18
 RS_GRID|   Bounds   3             -9       8                Points:          18
 RS_GRID| Real space fully replicated
 RS_GRID| Group size                                                           1

 RS_GRID| Information for grid number                                          4
 RS_GRID|   Bounds   1             -6       5                Points:          12
 RS_GRID|   Bounds   2             -6       5                Points:          12
 RS_GRID|   Bounds   3             -6       5                Points:          12
 RS_GRID| Real space fully replicated
 RS_GRID| Group size                                                           1

 RS_GRID| Information for grid number                                          5
 RS_GRID|   Bounds   1             -3       2                Points:           6
 RS_GRID|   Bounds   2             -3       2                Points:           6
 RS_GRID|   Bounds   3             -3       2                Points:           6
 RS_GRID| Real space fully replicated
 RS_GRID| Group size                                                           1

 BFGS| Use rational function optimization for step estimation:                NO
 BFGS| Use model Hessian for initial guess:                                  YES
 BFGS| Restart Hessian:                                                       NO
 BFGS| Trust radius:                                                       0.472

 *******************************************************************************
 ***                     STARTING GEOMETRY OPTIMIZATION                      ***
 ***                                   BFGS                                  ***
 *******************************************************************************

 Spin 1

 Number of electrons:                                                          8
 Number of occupied orbitals:                                                  8
 Number of molecular orbitals:                                                 8

 Spin 2

 Number of electrons:                                                          8
 Number of occupied orbitals:                                                  8
 Number of molecular orbitals:                                                 8

 Number of orbital functions:                                                 46
 Number of independent orbital functions:                                     46

 Extrapolation method: initial_guess

 Atomic guess: The first density matrix is obtained in terms of atomic orbitals
               and electronic configurations assigned to each atomic kind

 Guess for atomic kind: O

 Electronic structure
    Total number of core electrons                                          2.00
    Total number of valence electrons                                       6.00
    Total number of electrons                                               8.00
    Multiplicity                                                   not specified
    S   [  2.00] 2.00
    P      4.00
 

 *******************************************************************************
                  Iteration          Convergence                     Energy [au]
 *******************************************************************************
                          1        0.702811                     -15.577904332270
                          2        0.612408                     -15.588447180504
                          3        0.955344E-02                 -15.655871208406
                          4        0.223754E-02                 -15.655885053552
                          5        0.157183E-02                 -15.655885461027
                          6        0.124953E-02                 -15.655885607150
                          7        0.312011E-06                 -15.655885858066

 Energy components [Hartree]           Total Energy ::          -15.655885858066
                                        Band Energy ::           -2.983128125584
                                     Kinetic Energy ::           11.754765134683
                                   Potential Energy ::          -27.410650992750
                                      Virial (-V/T) ::            2.331875684345
                                        Core Energy ::          -26.153522949072
                                          XC Energy ::           -3.157392363346
                                     Coulomb Energy ::           13.655029454351
                       Total Pseudopotential Energy ::          -37.943026860963
                       Local Pseudopotential Energy ::          -39.220419683052
                    Nonlocal Pseudopotential Energy ::            1.277392822089
                                        Confinement ::            0.347387772086

 Orbital energies  State     L     Occupation   Energy[a.u.]          Energy[eV]

                       1     0          2.000      -0.861522          -23.443215
 
                       1     1          4.000      -0.315021           -8.572154
 

 Total Electron Density at R=0:                                         0.000093

 Guess for atomic kind: H

 Electronic structure
    Total number of core electrons                                          0.00
    Total number of valence electrons                                       1.00
    Total number of electrons                                               1.00
    Multiplicity                                                   not specified
    S      1.00
 

 *******************************************************************************
                  Iteration          Convergence                     Energy [au]
 *******************************************************************************
                          1        0.250972E-02                  -0.375256815885
                          2        0.570752E-04                  -0.375258666164
                          3        0.832405E-09                  -0.375258667122

 Energy components [Hartree]           Total Energy ::           -0.375258667122
                                        Band Energy ::           -0.076317618391
                                     Kinetic Energy ::            0.771356566341
                                   Potential Energy ::           -1.146615233463
                                      Virial (-V/T) ::            1.486491829455
                                        Core Energy ::           -0.456090715790
                                          XC Energy ::           -0.314218627334
                                     Coulomb Energy ::            0.395050676003
                       Total Pseudopotential Energy ::           -1.238482237174
                       Local Pseudopotential Energy ::           -1.238482237174
                    Nonlocal Pseudopotential Energy ::            0.000000000000
                                        Confinement ::            0.110349550431

 Orbital energies  State     L     Occupation   Energy[a.u.]          Energy[eV]

                       1     0          1.000      -0.076318           -2.076708
 

 Total Electron Density at R=0:                                         0.425022

 Spin 1
 Re-scaling the density matrix to get the right number of electrons for spin 1
                  # Electrons              Trace(P)               Scaling factor
                            8                 8.004                        0.999

 Spin 2
 Re-scaling the density matrix to get the right number of electrons for spin 2
                  # Electrons              Trace(P)               Scaling factor
                            8                 8.004                        0.999


 SCF WAVEFUNCTION OPTIMIZATION

  ----------------------------------- OT ---------------------------------------
  Minimizer      : CG                  : conjugate gradient
  Preconditioner : FULL_ALL            : diagonalization, state selective
  Precond_solver : DEFAULT
  Line search    : 2PNT                : 2 energies, one gradient
  stepsize       :    0.15000000                  energy_gap     :    0.08000000
  eps_taylor     :   0.10000E-15                  max_taylor     :             4
  ----------------------------------- OT ---------------------------------------

  Step     Update method      Time    Convergence         Total energy    Change
  ------------------------------------------------------------------------------
     1 OT CG       0.15E+00    0.4     0.13993038       -32.0901191285 -3.21E+01
     2 OT LS       0.18E+00    0.2                      -33.3297976402
     3 OT CG       0.18E+00    0.3     0.17793145       -33.2440499298 -1.15E+00
     4 OT LS       0.50E-01    0.2                      -31.4926861741
     5 OT CG       0.50E-01    0.3     0.14353465       -33.5134212747 -2.69E-01
     6 OT LS       0.74E-01    0.2                      -34.0172360351
     7 OT CG       0.74E-01    0.3     0.05480481       -34.0883998760 -5.75E-01
     8 OT LS       0.25E+00    0.2                      -34.2334709076
     9 OT CG       0.25E+00    0.3     0.02987701       -34.3730778022 -2.85E-01
    10 OT LS       0.15E+00    0.2                      -34.4012889882
    11 OT CG       0.15E+00    0.3     0.01674482       -34.4223249577 -4.92E-02
    12 OT LS       0.19E+00    0.2                      -34.4409493056
    13 OT CG       0.19E+00    0.3     0.01009686       -34.4415513087 -1.92E-02
    14 OT LS       0.20E+00    0.2                      -34.4491416495
    15 OT CG       0.20E+00    0.3     0.00596608       -34.4491965072 -7.65E-03
    16 OT LS       0.20E+00    0.2                      -34.4517939987
    17 OT CG       0.20E+00    0.3     0.00365574       -34.4517956602 -2.60E-03
    18 OT LS       0.15E+00    0.2                      -34.4524445351
    19 OT CG       0.15E+00    0.3     0.00220549       -34.4525279594 -7.32E-04
    20 OT LS       0.20E+00    0.2                      -34.4528620864
    21 OT CG       0.20E+00    0.3     0.00133385       -34.4528853036 -3.57E-04
    22 OT LS       0.16E+00    0.2                      -34.4529872057
    23 OT CG       0.16E+00    0.3     0.00068181       -34.4529924362 -1.07E-04
    24 OT LS       0.20E+00    0.2                      -34.4530255973
    25 OT CG       0.20E+00    0.3     0.00037626       -34.4530267765 -3.43E-05
    26 OT LS       0.18E+00    0.2                      -34.4530359899
    27 OT CG       0.18E+00    0.3     0.00020770       -34.4530361224 -9.35E-06
    28 OT LS       0.18E+00    0.2                      -34.4530390157
    29 OT CG       0.18E+00    0.3     0.00011674       -34.4530390164 -2.89E-06
    30 OT LS       0.20E+00    0.2                      -34.4530399992
    31 OT CG       0.20E+00    0.3     0.00007702       -34.4530400047 -9.88E-07
    32 OT LS       0.17E+00    0.2                      -34.4530403666
    33 OT CG       0.17E+00    0.3     0.00004204       -34.4530403760 -3.71E-07
    34 OT LS       0.15E+00    0.2                      -34.4530404719
    35 OT CG       0.15E+00    0.3     0.00002450       -34.4530404736 -9.76E-08
    36 OT LS       0.20E+00    0.2                      -34.4530405147
    37 OT CG       0.20E+00    0.3     0.00001291       -34.4530405172 -4.36E-08
    38 OT LS       0.18E+00    0.2                      -34.4530405283
    39 OT CG       0.18E+00    0.3     0.00000693       -34.4530405284 -1.11E-08
    40 OT LS       0.18E+00    0.2                      -34.4530405315
    41 OT CG       0.18E+00    0.3     0.00000364       -34.4530405315 -3.13E-09

  *** SCF run converged in    41 steps ***


  Electronic density on regular grids:        -15.9999997601        0.0000002399
  Core density on regular grids:               16.0000000000       -0.0000000000
  Total charge density on r-space grids:        0.0000002399
  Total charge density g-space grids:           0.0000002399

  Overlap energy of the core charge distribution:               0.00000006146569
  Self energy of the core charge distribution:                -88.69430999347530
  Core Hamiltonian energy:                                     25.88836369055982
  Hartree energy:                                              36.83974714296169
  Exchange-correlation energy:                                 -8.48423120080325
  Dispersion energy:                                           -0.00261023218668

  Total energy:                                               -34.45304053147803

  outer SCF iter =    1 RMS gradient =   0.36E-05 energy =        -34.4530405315
  outer SCF loop converged in   1 iterations or   41 steps


  Integrated absolute spin density  :                               0.0000000000
  Ideal and single determinant S**2 :                    0.000000       0.000000

 !-----------------------------------------------------------------------------!
                     Mulliken Population Analysis

 #  Atom  Element  Kind  Atomic population (alpha,beta) Net charge  Spin moment
       1     O        1         3.166194     3.166194    -0.332388     0.000000
       2     H        2         0.439164     0.439164     0.121671     0.000000
       3     H        2         0.431947     0.431947     0.136107     0.000000
       4     O        1         3.115597     3.115597    -0.231194     0.000000
       5     H        2         0.425203     0.425203     0.149593     0.000000
       6     H        2         0.421895     0.421895     0.156210    -0.000000
 # Total charge and spin        8.000000     8.000000     0.000000     0.000000

 !-----------------------------------------------------------------------------!

 !-----------------------------------------------------------------------------!
                           Hirshfeld Charges

  #Atom  Element  Kind  Ref Charge     Population       Spin moment  Net charge
      1       O      1       6.000    3.585   3.585            0.000     -1.169
      2       H      2       1.000    0.222   0.222            0.000      0.556
      3       H      2       1.000    0.200   0.200            0.000      0.601
      4       O      1       6.000    3.571   3.571            0.000     -1.143
      5       H      2       1.000    0.216   0.216            0.000      0.568
      6       H      2       1.000    0.206   0.206           -0.000      0.588

  Total Charge                                                            0.001
 !-----------------------------------------------------------------------------!

 ENERGY| Total FORCE_EVAL ( QS ) energy (a.u.):              -33.017127391324109


 --------  Informations at step =     0 ------------
  Optimization Method        =                 BFGS
  Total Energy               =       -33.0171273913
  Used time                  =               11.649
 ---------------------------------------------------

 --------------------------
 OPTIMIZATION STEP:      1
 --------------------------

  Step is scaled; Scaling factor =  0.02032

 Spin 1

 Number of electrons:                                                          8
 Number of occupied orbitals:                                                  8
 Number of molecular orbitals:                                                 8

 Spin 2

 Number of electrons:                                                          8
 Number of occupied orbitals:                                                  8
 Number of molecular orbitals:                                                 8

 Number of orbital functions:                                                 46
 Number of independent orbital functions:                                     46

 Parameters for the always stable predictor-corrector (ASPC) method:

  ASPC order: 0

  B(1) =   1.000000

 Parameters for the always stable predictor-corrector (ASPC) method:

  ASPC order: 0

  B(1) =   1.000000

 Extrapolation method: ASPC


 SCF WAVEFUNCTION OPTIMIZATION

  ----------------------------------- OT ---------------------------------------
  Minimizer      : CG                  : conjugate gradient
  Preconditioner : FULL_ALL            : diagonalization, state selective
  Precond_solver : DEFAULT
  Line search    : 2PNT                : 2 energies, one gradient
  stepsize       :    0.15000000                  energy_gap     :    0.08000000
  eps_taylor     :   0.10000E-15                  max_taylor     :             4
  ----------------------------------- OT ---------------------------------------

  Step     Update method      Time    Convergence         Total energy    Change
  ------------------------------------------------------------------------------
     1 OT CG       0.15E+00    0.2     0.02317553       -34.2245811358 -3.42E+01
     2 OT LS       0.40E+00    0.2                      -34.2728624494
     3 OT CG       0.40E+00    0.3     0.01160667       -34.3033622200 -7.88E-02
     4 OT LS       0.20E+00    0.2                      -34.3021302697
     5 OT CG       0.20E+00    0.3     0.00189745       -34.3127610976 -9.40E-03
     6 OT LS       0.31E+00    0.2                      -34.3131159209
     7 OT CG       0.31E+00    0.3     0.00022232       -34.3131719732 -4.11E-04
     8 OT LS       0.36E+00    0.2                      -34.3131784171
     9 OT CG       0.36E+00    0.3     0.00006820       -34.3131785490 -6.58E-06
    10 OT LS       0.22E+00    0.2                      -34.3131787871
    11 OT CG       0.22E+00    0.3     0.00002047       -34.3131789321 -3.83E-07
    12 OT LS       0.31E+00    0.2                      -34.3131789759
    13 OT CG       0.31E+00    0.3     0.00000393       -34.3131789792 -4.71E-08

  *** SCF run converged in    13 steps ***


  Electronic density on regular grids:        -16.0000000138       -0.0000000138
  Core density on regular grids:               16.0000000000        0.0000000000
  Total charge density on r-space grids:       -0.0000000137
  Total charge density g-space grids:          -0.0000000137

  Overlap energy of the core charge distribution:               0.00000016645809
  Self energy of the core charge distribution:                -88.69430999347530
  Core Hamiltonian energy:                                     26.31089743476153
  Hartree energy:                                              36.63881339423335
  Exchange-correlation energy:                                 -8.56604892722851
  Dispersion energy:                                           -0.00253105397791

  Total energy:                                               -34.31317897922875

  outer SCF iter =    1 RMS gradient =   0.39E-05 energy =        -34.3131789792
  outer SCF loop converged in   1 iterations or   13 steps


  Integrated absolute spin density  :                               0.0000000000
  Ideal and single determinant S**2 :                    0.000000       0.000000

 !-----------------------------------------------------------------------------!
                     Mulliken Population Analysis

 #  Atom  Element  Kind  Atomic population (alpha,beta) Net charge  Spin moment
       1     O        1         3.265629     3.265629    -0.531258    -0.000000
       2     H        2         0.444342     0.444342     0.111315    -0.000000
       3     H        2         0.520032     0.520032    -0.040063     0.000000
       4     O        1         2.941407     2.941407     0.117186     0.000000
       5     H        2         0.416710     0.416710     0.166579     0.000000
       6     H        2         0.411879     0.411879     0.176241    -0.000000
 # Total charge and spin        8.000000     8.000000     0.000000     0.000000

 !-----------------------------------------------------------------------------!

 !-----------------------------------------------------------------------------!
                           Hirshfeld Charges

  #Atom  Element  Kind  Ref Charge     Population       Spin moment  Net charge
      1       O      1       6.000    3.629   3.629           -0.000     -1.259
      2       H      2       1.000    0.225   0.225           -0.000      0.550
      3       H      2       1.000    0.211   0.211            0.000      0.578
      4       O      1       6.000    3.524   3.524            0.000     -1.048
      5       H      2       1.000    0.210   0.210           -0.000      0.580
      6       H      2       1.000    0.200   0.200           -0.000      0.600

  Total Charge                                                            0.001
 !-----------------------------------------------------------------------------!

 ENERGY| Total FORCE_EVAL ( QS ) energy (a.u.):              -29.036595766867187


 --------  Informations at step =     1 ------------
  Optimization Method        =                 BFGS
  Total Energy               =       -29.0365957669
  Real energy change         =         3.9805316245
  Predicted change in energy =        -8.3472664247
  Scaling factor             =         0.0203205476
  Step size                  =         0.4724315332
  Trust radius               =         0.4724315332
  Decrease in energy         =                   NO
  Used time                  =                4.059

  Convergence check :
  Max. step size             =         0.4724315332
  Conv. limit for step size  =         0.0030000000
  Convergence in step size   =                   NO
  RMS step size              =         0.2416814014
  Conv. limit for RMS step   =         0.0015000000
  Convergence in RMS step    =                   NO
  Max. gradient              =        13.4672863750
  Conv. limit for gradients  =         0.0004500000
  Conv. for gradients        =                   NO
  RMS gradient               =         4.9409787526
  Conv. limit for RMS grad.  =         0.0003000000
  Conv. for gradients        =                   NO
 ---------------------------------------------------

 --------------------------
 OPTIMIZATION STEP:      2
 --------------------------

  Step is scaled; Scaling factor =  0.09564

 Spin 1

 Number of electrons:                                                          8
 Number of occupied orbitals:                                                  8
 Number of molecular orbitals:                                                 8

 Spin 2

 Number of electrons:                                                          8
 Number of occupied orbitals:                                                  8
 Number of molecular orbitals:                                                 8

 Number of orbital functions:                                                 46
 Number of independent orbital functions:                                     46

 Parameters for the always stable predictor-corrector (ASPC) method:

  ASPC order: 0

  B(1) =   2.000000
  B(2) =  -1.000000

 Parameters for the always stable predictor-corrector (ASPC) method:

  ASPC order: 0

  B(1) =   2.000000
  B(2) =  -1.000000

 Extrapolation method: ASPC


 SCF WAVEFUNCTION OPTIMIZATION

  ----------------------------------- OT ---------------------------------------
  Minimizer      : CG                  : conjugate gradient
  Preconditioner : FULL_ALL            : diagonalization, state selective
  Precond_solver : DEFAULT
  Line search    : 2PNT                : 2 energies, one gradient
  stepsize       :    0.15000000                  energy_gap     :    0.08000000
  eps_taylor     :   0.10000E-15                  max_taylor     :             4
  ----------------------------------- OT ---------------------------------------

  Step     Update method      Time    Convergence         Total energy    Change
  ------------------------------------------------------------------------------
     1 OT CG       0.15E+00    0.2     0.03159779       -34.1768875438 -3.42E+01
     2 OT LS       0.40E+00    0.2                      -34.2667009787
     3 OT CG       0.40E+00    0.3     0.01537983       -34.3240409860 -1.47E-01
     4 OT LS       0.19E+00    0.2                      -34.3197705327
     5 OT CG       0.19E+00    0.3     0.00185336       -34.3404081841 -1.64E-02
     6 OT LS       0.34E+00    0.2                      -34.3407537131
     7 OT CG       0.34E+00    0.3     0.00053999       -34.3408332919 -4.25E-04
     8 OT LS       0.23E+00    0.2                      -34.3408527787
     9 OT CG       0.23E+00    0.3     0.00018010       -34.3408579920 -2.47E-05
    10 OT LS       0.27E+00    0.2                      -34.3408611642
    11 OT CG       0.27E+00    0.3     0.00003178       -34.3408612399 -3.25E-06
    12 OT LS       0.38E+00    0.2                      -34.3408613703
    13 OT CG       0.38E+00    0.3     0.00001201       -34.3408613821 -1.42E-07
    14 OT LS       0.19E+00    0.2                      -34.3408613822
    15 OT CG       0.19E+00    0.3     0.00000302       -34.3408613923 -1.02E-08

  *** SCF run converged in    15 steps ***


  Electronic density on regular grids:        -15.9999998578        0.0000001422
  Core density on regular grids:               16.0000000000        0.0000000000
  Total charge density on r-space grids:        0.0000001422
  Total charge density g-space grids:           0.0000001422

  Overlap energy of the core charge distribution:               0.00000001031335
  Self energy of the core charge distribution:                -88.69430999347530
  Core Hamiltonian energy:                                     25.89201853207404
  Hartree energy:                                              36.92047220266672
  Exchange-correlation energy:                                 -8.45647438602601
  Dispersion energy:                                           -0.00256775786274

  Total energy:                                               -34.34086139230993

  outer SCF iter =    1 RMS gradient =   0.30E-05 energy =        -34.3408613923
  outer SCF loop converged in   1 iterations or   15 steps


  Integrated absolute spin density  :                               0.0000000000
  Ideal and single determinant S**2 :                    0.000000       0.000000

 !-----------------------------------------------------------------------------!
                     Mulliken Population Analysis

 #  Atom  Element  Kind  Atomic population (alpha,beta) Net charge  Spin moment
       1     O        1         3.257994     3.257994    -0.515988     0.000000
       2     H        2         0.436467     0.436467     0.127066     0.000000
       3     H        2         0.450406     0.450406     0.099188    -0.000000
       4     O        1         3.061593     3.061593    -0.123186     0.000000
       5     H        2         0.399933     0.399933     0.200134     0.000000
       6     H        2         0.393607     0.393607     0.212786     0.000000
 # Total charge and spin        8.000000     8.000000     0.000000     0.000000

 !-----------------------------------------------------------------------------!

 !-----------------------------------------------------------------------------!
                           Hirshfeld Charges

  #Atom  Element  Kind  Ref Charge     Population       Spin moment  Net charge
      1       O      1       6.000    3.627   3.627            0.000     -1.255
      2       H      2       1.000    0.218   0.218            0.000      0.563
      3       H      2       1.000    0.192   0.192           -0.000      0.617
      4       O      1       6.000    3.549   3.549            0.000     -1.098
      5       H      2       1.000    0.212   0.212            0.000      0.576
      6       H      2       1.000    0.200   0.200           -0.000      0.599

  Total Charge                                                            0.001
 !-----------------------------------------------------------------------------!

 ENERGY| Total FORCE_EVAL ( QS ) energy (a.u.):              -32.908973331240290


 --------  Informations at step =     2 ------------
  Optimization Method        =                 BFGS
  Total Energy               =       -32.9089733312
  Real energy change         =        -3.8723775644
  Predicted change in energy =        -1.4813716992
  Scaling factor             =         0.0956416272
  Step size                  =         0.4724315332
  Trust radius               =         0.4724315332
  Decrease in energy         =                   NO
  Used time                  =                5.407

  Convergence check :
  Max. step size             =         0.4724315332
  Conv. limit for step size  =         0.0030000000
  Convergence in step size   =                   NO
  RMS step size              =         0.1681090222
  Conv. limit for RMS step   =         0.0015000000
  Convergence in RMS step    =                   NO
  Max. gradient              =         6.9224535549
  Conv. limit for gradients  =         0.0004500000
  Conv. for gradients        =                   NO
  RMS gradient               =         2.5679333577
  Conv. limit for RMS grad.  =         0.0003000000
  Conv. for gradients        =                   NO
 ---------------------------------------------------

 --------------------------
 OPTIMIZATION STEP:      3
 --------------------------

  Step is scaled; Scaling factor =  0.00002

 Spin 1

 Number of electrons:                                                          8
 Number of occupied orbitals:                                                  8
 Number of molecular orbitals:                                                 8

 Spin 2

 Number of electrons:                                                          8
 Number of occupied orbitals:                                                  8
 Number of molecular orbitals:                                                 8

 Number of orbital functions:                                                 46
 Number of independent orbital functions:                                     46

 Parameters for the always stable predictor-corrector (ASPC) method:

  ASPC order: 1

  B(1) =   2.500000
  B(2) =  -2.000000
  B(3) =   0.500000

 Parameters for the always stable predictor-corrector (ASPC) method:

  ASPC order: 1

  B(1) =   2.500000
  B(2) =  -2.000000
  B(3) =   0.500000

 Extrapolation method: ASPC


 SCF WAVEFUNCTION OPTIMIZATION

  ----------------------------------- OT ---------------------------------------
  Minimizer      : CG                  : conjugate gradient
  Preconditioner : FULL_ALL            : diagonalization, state selective
  Precond_solver : DEFAULT
  Line search    : 2PNT                : 2 energies, one gradient
  stepsize       :    0.15000000                  energy_gap     :    0.08000000
  eps_taylor     :   0.10000E-15                  max_taylor     :             4
  ----------------------------------- OT ---------------------------------------

  Step     Update method      Time    Convergence         Total energy    Change
  ------------------------------------------------------------------------------
     1 OT CG       0.15E+00    0.2     0.04020448       -34.0739722808 -3.41E+01
     2 OT LS       0.37E+00    0.2                      -34.2160675317
     3 OT CG       0.37E+00    0.3     0.01785545       -34.2950272558 -2.21E-01
     4 OT LS       0.24E+00    0.2                      -34.3161651687
     5 OT CG       0.24E+00    0.3     0.00207327       -34.3242069938 -2.92E-02
     6 OT LS       0.33E+00    0.2                      -34.3246935178
     7 OT CG       0.33E+00    0.3     0.00054505       -34.3247315774 -5.25E-04
     8 OT LS       0.24E+00    0.2                      -34.3247547911
     9 OT CG       0.24E+00    0.3     0.00018431       -34.3247582431 -2.67E-05
    10 OT LS       0.34E+00    0.2                      -34.3247621610
    11 OT CG       0.34E+00    0.3     0.00002627       -34.3247625079 -4.26E-06
    12 OT LS       0.30E+00    0.2                      -34.3247625820
    13 OT CG       0.30E+00    0.3     0.00000940       -34.3247625836 -7.56E-08
    14 OT LS       0.27E+00    0.2                      -34.3247625922
    15 OT CG       0.27E+00    0.3     0.00000236       -34.3247625923 -8.69E-09

  *** SCF run converged in    15 steps ***


  Electronic density on regular grids:        -15.9999999324        0.0000000676
  Core density on regular grids:               16.0000000000        0.0000000000
  Total charge density on r-space grids:        0.0000000676
  Total charge density g-space grids:           0.0000000676

  Overlap energy of the core charge distribution:               0.00003572184045
  Self energy of the core charge distribution:                -88.69430999347530
  Core Hamiltonian energy:                                     26.82510005287796
  Hartree energy:                                              36.26257594508216
  Exchange-correlation energy:                                 -8.71547431611294
  Dispersion energy:                                           -0.00269000248485

  Total energy:                                               -34.32476259227251

  outer SCF iter =    1 RMS gradient =   0.24E-05 energy =        -34.3247625923
  outer SCF loop converged in   1 iterations or   15 steps


  Integrated absolute spin density  :                               0.0000000000
  Ideal and single determinant S**2 :                    0.000000       0.000000

 !-----------------------------------------------------------------------------!
                     Mulliken Population Analysis

 #  Atom  Element  Kind  Atomic population (alpha,beta) Net charge  Spin moment
       1     O        1         3.089548     3.089548    -0.179096     0.000000
       2     H        2         0.430791     0.430791     0.138419     0.000000
       3     H        2         0.494996     0.494996     0.010009     0.000000
       4     O        1         3.064377     3.064377    -0.128753     0.000000
       5     H        2         0.456886     0.456886     0.086228     0.000000
       6     H        2         0.463403     0.463403     0.073193     0.000000
 # Total charge and spin        8.000000     8.000000     0.000000     0.000000

 !-----------------------------------------------------------------------------!

 !-----------------------------------------------------------------------------!
                           Hirshfeld Charges

  #Atom  Element  Kind  Ref Charge     Population       Spin moment  Net charge
      1       O      1       6.000    3.536   3.536            0.000     -1.073
      2       H      2       1.000    0.211   0.211            0.000      0.577
      3       H      2       1.000    0.252   0.252            0.000      0.497
      4       O      1       6.000    3.550   3.550            0.000     -1.100
      5       H      2       1.000    0.224   0.224            0.000      0.551
      6       H      2       1.000    0.226   0.226            0.000      0.548

  Total Charge                                                            0.001
 !-----------------------------------------------------------------------------!

 ENERGY| Total FORCE_EVAL ( QS ) energy (a.u.):              -31.035726545040777


 --------  Informations at step =     3 ------------
  Optimization Method        =                 BFGS
  Total Energy               =       -31.0357265450
  Real energy change         =         1.8732467862
  Predicted change in energy =       -26.6686965566
  Scaling factor             =         0.0000157049
  Step size                  =         0.4724315332
  Trust radius               =         0.4724315332
  Decrease in energy         =                   NO
  Used time                  =                4.686

  Convergence check :
  Max. step size             =         0.4724315332
  Conv. limit for step size  =         0.0030000000
  Convergence in step size   =                   NO
  RMS step size              =         0.2241444927
  Conv. limit for RMS step   =         0.0015000000
  Convergence in RMS step    =                   NO
  Max. gradient              =        10.9457934411
  Conv. limit for gradients  =         0.0004500000
  Conv. for gradients        =                   NO
  RMS gradient               =         3.9244307537
  Conv. limit for RMS grad.  =         0.0003000000
  Conv. for gradients        =                   NO
 ---------------------------------------------------

 --------------------------
 OPTIMIZATION STEP:      4
 --------------------------

  Step is scaled; Scaling factor =  0.20436

 Spin 1

 Number of electrons:                                                          8
 Number of occupied orbitals:                                                  8
 Number of molecular orbitals:                                                 8

 Spin 2

 Number of electrons:                                                          8
 Number of occupied orbitals:                                                  8
 Number of molecular orbitals:                                                 8

 Number of orbital functions:                                                 46
 Number of independent orbital functions:                                     46

 Parameters for the always stable predictor-corrector (ASPC) method:

  ASPC order: 2

  B(1) =   2.800000
  B(2) =  -2.800000
  B(3) =   1.200000
  B(4) =  -0.200000

 Parameters for the always stable predictor-corrector (ASPC) method:

  ASPC order: 2

  B(1) =   2.800000
  B(2) =  -2.800000
  B(3) =   1.200000
  B(4) =  -0.200000

 Extrapolation method: ASPC


 SCF WAVEFUNCTION OPTIMIZATION

  ----------------------------------- OT ---------------------------------------
  Minimizer      : CG                  : conjugate gradient
  Preconditioner : FULL_ALL            : diagonalization, state selective
  Precond_solver : DEFAULT
  Line search    : 2PNT                : 2 energies, one gradient
  stepsize       :    0.15000000                  energy_gap     :    0.08000000
  eps_taylor     :   0.10000E-15                  max_taylor     :             4
  ----------------------------------- OT ---------------------------------------

  Step     Update method      Time    Convergence         Total energy    Change
  ------------------------------------------------------------------------------
     1 OT CG       0.15E+00    0.2     0.07537449       -33.5950971066 -3.36E+01
     2 OT LS       0.37E+00    0.2                      -34.0959305605
     3 OT CG       0.37E+00    0.3     0.03777747       -34.3129495644 -7.18E-01
     4 OT LS       0.19E+00    0.2                      -34.3177061445
     5 OT CG       0.19E+00    0.3     0.01530365       -34.3901606462 -7.72E-02
     6 OT LS       0.22E+00    0.2                      -34.4084945015
     7 OT CG       0.22E+00    0.3     0.00526753       -34.4088200879 -1.87E-02
     8 OT LS       0.22E+00    0.2                      -34.4110434708
     9 OT CG       0.22E+00    0.3     0.00136112       -34.4110434804 -2.22E-03
    10 OT LS       0.25E+00    0.2                      -34.4112080079
    11 OT CG       0.25E+00    0.3     0.00054917       -34.4112104476 -1.67E-04
    12 OT LS       0.21E+00    0.2                      -34.4112327662
    13 OT CG       0.21E+00    0.4     0.00014722       -34.4112335241 -2.31E-05
    14 OT LS       0.27E+00    0.3                      -34.4112355673
    15 OT CG       0.27E+00    0.5     0.00004359       -34.4112356823 -2.16E-06
    16 OT LS       0.28E+00    0.4                      -34.4112358780
    17 OT CG       0.28E+00    0.4     0.00001181       -34.4112358782 -1.96E-07
    18 OT LS       0.30E+00    0.2                      -34.4112358937
    19 OT CG       0.30E+00    0.3     0.00000338       -34.4112358938 -1.56E-08

  *** SCF run converged in    19 steps ***


  Electronic density on regular grids:        -16.0000000117       -0.0000000117
  Core density on regular grids:               16.0000000000        0.0000000000
  Total charge density on r-space grids:       -0.0000000117
  Total charge density g-space grids:          -0.0000000117

  Overlap energy of the core charge distribution:               0.00000002841444
  Self energy of the core charge distribution:                -88.69430999347530
  Core Hamiltonian energy:                                     25.77762910471302
  Hartree energy:                                              36.94841518378567
  Exchange-correlation energy:                                 -8.44030283301117
  Dispersion energy:                                           -0.00266738421829

  Total energy:                                               -34.41123589379163

  outer SCF iter =    1 RMS gradient =   0.34E-05 energy =        -34.4112358938
  outer SCF loop converged in   1 iterations or   19 steps


  Integrated absolute spin density  :                               0.0000000000
  Ideal and single determinant S**2 :                    0.000000       0.000000

 !-----------------------------------------------------------------------------!
                     Mulliken Population Analysis

 #  Atom  Element  Kind  Atomic population (alpha,beta) Net charge  Spin moment
       1     O        1         3.190343     3.190343    -0.380687     0.000000
       2     H        2         0.430626     0.430626     0.138747     0.000000
       3     H        2         0.412577     0.412577     0.174845     0.000000
       4     O        1         3.143483     3.143483    -0.286966     0.000000
       5     H        2         0.412452     0.412452     0.175096     0.000000
       6     H        2         0.410518     0.410518     0.178964     0.000000
 # Total charge and spin        8.000000     8.000000     0.000000     0.000000

 !-----------------------------------------------------------------------------!

 !-----------------------------------------------------------------------------!
                           Hirshfeld Charges

  #Atom  Element  Kind  Ref Charge     Population       Spin moment  Net charge
      1       O      1       6.000    3.595   3.595            0.000     -1.190
      2       H      2       1.000    0.213   0.213            0.000      0.573
      3       H      2       1.000    0.193   0.193            0.000      0.614
      4       O      1       6.000    3.579   3.579            0.000     -1.159
      5       H      2       1.000    0.213   0.213            0.000      0.573
      6       H      2       1.000    0.205   0.205            0.000      0.590

  Total Charge                                                            0.001
 !-----------------------------------------------------------------------------!

 ENERGY| Total FORCE_EVAL ( QS ) energy (a.u.):              -32.218939891336859


 --------  Informations at step =     4 ------------
  Optimization Method        =                 BFGS
  Total Energy               =       -32.2189398913
  Real energy change         =        -1.1832133463
  Predicted change in energy =        -3.0643825293
  Scaling factor             =         0.2043621943
  Step size                  =         0.4724315332
  Trust radius               =         0.4724315332
  Decrease in energy         =                   NO
  Used time                  =                6.470

  Convergence check :
  Max. step size             =         0.4724315332
  Conv. limit for step size  =         0.0030000000
  Convergence in step size   =                   NO
  RMS step size              =         0.1826927145
  Conv. limit for RMS step   =         0.0015000000
  Convergence in RMS step    =                   NO
  Max. gradient              =         8.4971032927
  Conv. limit for gradients  =         0.0004500000
  Conv. for gradients        =                   NO
  RMS gradient               =         3.1131241307
  Conv. limit for RMS grad.  =         0.0003000000
  Conv. for gradients        =                   NO
 ---------------------------------------------------

 --------------------------
 OPTIMIZATION STEP:      5
 --------------------------

  Step is scaled; Scaling factor =  0.20917

 Spin 1

 Number of electrons:                                                          8
[...]

 Parameters for the always stable predictor-corrector (ASPC) method:

  ASPC order: 3

  B(1) =   3.000000
  B(2) =  -3.428571
  B(3) =   1.928571
  B(4) =  -0.571429
  B(5) =   0.071429

 Parameters for the always stable predictor-corrector (ASPC) method:

  ASPC order: 3

  B(1) =   3.000000
  B(2) =  -3.428571
  B(3) =   1.928571
  B(4) =  -0.571429
  B(5) =   0.071429

 Extrapolation method: ASPC


 SCF WAVEFUNCTION OPTIMIZATION

  ----------------------------------- OT ---------------------------------------
  Minimizer      : CG                  : conjugate gradient
  Preconditioner : FULL_ALL            : diagonalization, state selective
  Precond_solver : DEFAULT
  Line search    : 2PNT                : 2 energies, one gradient
  stepsize       :    0.15000000                  energy_gap     :    0.08000000
  eps_taylor     :   0.10000E-15                  max_taylor     :             4
  ----------------------------------- OT ---------------------------------------

  Step     Update method      Time    Convergence         Total energy    Change
  ------------------------------------------------------------------------------
     1 OT CG       0.15E+00    0.2     0.00005547       -34.4386579427 -3.44E+01
     2 OT LS       0.44E+00    0.2                      -34.4386582247
     3 OT CG       0.44E+00    0.3     0.00002180       -34.4386584433 -5.01E-07
     4 OT LS       0.20E+00    0.2                      -34.4386584300
     5 OT CG       0.20E+00    0.3     0.00000203       -34.4386584789 -3.56E-08

  *** SCF run converged in     5 steps ***


  Electronic density on regular grids:        -15.9999997873        0.0000002127
  Core density on regular grids:               16.0000000000        0.0000000000
  Total charge density on r-space grids:        0.0000002127
  Total charge density g-space grids:           0.0000002127

  Overlap energy of the core charge distribution:               0.00000005463160
  Self energy of the core charge distribution:                -88.69430999347530
  Core Hamiltonian energy:                                     25.91663757958882
  Hartree energy:                                              36.83226269502421
  Exchange-correlation energy:                                 -8.49066219149554
  Dispersion energy:                                           -0.00258662313904

  Total energy:                                               -34.43865847886526

  outer SCF iter =    1 RMS gradient =   0.20E-05 energy =        -34.4386584789
  outer SCF loop converged in   1 iterations or    5 steps


  Integrated absolute spin density  :                               0.0000000000
  Ideal and single determinant S**2 :                    0.000000       0.000000

 !-----------------------------------------------------------------------------!
                     Mulliken Population Analysis

 #  Atom  Element  Kind  Atomic population (alpha,beta) Net charge  Spin moment
       1     O        1         3.207216     3.207216    -0.414432     0.000000
       2     H        2         0.441982     0.441982     0.116036     0.000000
       3     H        2         0.436760     0.436760     0.126479     0.000000
       4     O        1         3.078665     3.078665    -0.157330    -0.000000
       5     H        2         0.417801     0.417801     0.164397    -0.000000
       6     H        2         0.417575     0.417575     0.164850     0.000000
 # Total charge and spin        8.000000     8.000000     0.000000    -0.000000

 !-----------------------------------------------------------------------------!

 !-----------------------------------------------------------------------------!
                           Hirshfeld Charges

  #Atom  Element  Kind  Ref Charge     Population       Spin moment  Net charge
      1       O      1       6.000    3.602   3.602            0.000     -1.205
      2       H      2       1.000    0.225   0.225            0.000      0.550
      3       H      2       1.000    0.195   0.195            0.000      0.610
      4       O      1       6.000    3.558   3.558           -0.000     -1.117
      5       H      2       1.000    0.214   0.214           -0.000      0.573
      6       H      2       1.000    0.205   0.205            0.000      0.589

  Total Charge                                                            0.001
 !-----------------------------------------------------------------------------!

 ENERGY| Total FORCE_EVAL ( QS ) energy (a.u.):              -34.438606525987304


 -------------------------------------------------------------------------------
 -                                                                             -
 -                                DBCSR STATISTICS                             -
 -                                                                             -
 -------------------------------------------------------------------------------
 COUNTER                                    TOTAL       BLAS       SMM       ACC
 flops     5 x     8 x     8              2727680     100.0%      0.0%      0.0%
 flops    10 x     8 x     5              4672000     100.0%      0.0%      0.0%
 flops     5 x     5 x     8              5408000     100.0%      0.0%      0.0%
 flops    10 x     8 x     8              5455360     100.0%      0.0%      0.0%
 flops     8 x     8 x     8              5521408     100.0%      0.0%      0.0%
 flops     5 x    13 x     8              5624320     100.0%      0.0%      0.0%
 flops    13 x     5 x     8              5624320     100.0%      0.0%      0.0%
 flops    10 x     8 x    13              6073600     100.0%      0.0%      0.0%
 flops     8 x     8 x     5              7987200     100.0%      0.0%      0.0%
 flops     8 x     8 x    13             10383360     100.0%      0.0%      0.0%
 flops    13 x    13 x     8             10967424     100.0%      0.0%      0.0%
 flops    31 x     8 x     5             14483200     100.0%      0.0%      0.0%
 flops    31 x     8 x     8             16911616     100.0%      0.0%      0.0%
 flops    31 x     8 x    13             18828160     100.0%      0.0%      0.0%
 flops     5 x     8 x     5             21273600     100.0%      0.0%      0.0%
 flops    13 x     8 x     5             24618880     100.0%      0.0%      0.0%
 flops     5 x     8 x    13             27655680     100.0%      0.0%      0.0%
 flops    13 x     8 x    13             32004544     100.0%      0.0%      0.0%
 flops inhomo. stacks                           0       0.0%      0.0%      0.0%
 flops total                       226.220352E+06     100.0%      0.0%      0.0%
 flops max/rank                    154.000992E+06     100.0%      0.0%      0.0%
 matmuls inhomo. stacks                         0       0.0%      0.0%      0.0%
 matmuls total                             198094     100.0%      0.0%      0.0%
 number of processed stacks                155826     100.0%      0.0%      0.0%
 average stack size                                     1.3       0.0       0.0
 marketing flops                   244.986912E+06
 -------------------------------------------------------------------------------
 # multiplications                          18651
 max memory usage/rank             222.711808E+06
 # max total images/rank                        5
 # max 3D layers                                1
 # MPI messages exchanged                47000520
 MPI messages size (bytes):
  total size                         1.209567E+09
  min size                           0.000000E+00
  max size                           3.224000E+03
  average size                      25.735193E+00
 MPI breakdown and total messages size (bytes):
             size <=      128            45361224                        0
       128 < size <=     8192             1639296               1209567456
      8192 < size <=    32768                   0                        0
     32768 < size <=   131072                   0                        0
    131072 < size <=  4194304                   0                        0
   4194304 < size <= 16777216                   0                        0
  16777216 < size                               0                        0
 -------------------------------------------------------------------------------

 *** WARNING in dbcsr/mm/dbcsr_mm.F:268 :: Using a non-square number of ***
 *** MPI ranks might lead to poor performance.                          ***
 *** Used ranks: 40                                                     ***
 *** Suggested: 36 81                                                   ***

 -------------------------------------------------------------------------------
 
 MEMORY| Estimated peak process memory [MiB]                                 213

 -------------------------------------------------------------------------------
 ----                             MULTIGRID INFO                            ----
 -------------------------------------------------------------------------------
 count for grid        1:         307865          cutoff [a.u.]          150.00
 count for grid        2:         141489          cutoff [a.u.]           50.00
 count for grid        3:         161011          cutoff [a.u.]           16.67
 count for grid        4:          92697          cutoff [a.u.]            5.56
 count for grid        5:            600          cutoff [a.u.]            1.85
 total gridlevel count  :         703662

 -------------------------------------------------------------------------------
 -                                                                             -
 -                         MESSAGE PASSING PERFORMANCE                         -
 -                                                                             -
 -------------------------------------------------------------------------------

 ROUTINE             CALLS      AVE VOLUME [Bytes]
 MP_Group             2229
 MP_Bcast             9512                  16522.
 MP_Allreduce       122671                     15.
 MP_Sync              8673
 MP_Alltoall        107598                  26484.
 MP_SendRecv          8112                    244.
 MP_ISendRecv       395616                  12166.
 MP_Wait           2194016
 MP_comm_split         764
 MP_ISend          2486288                    113.
 MP_IRecv          2474744                     94.
 MP_Recv               408                    288.
 MP_Memory         2355170
 -------------------------------------------------------------------------------


 -------------------------------------------------------------------------------
 -                                                                             -
 -                           R E F E R E N C E S                               -
 -                                                                             -
 -------------------------------------------------------------------------------
 
 CP2K version 7.0 (Development Version), the CP2K developers group (2018).
 CP2K is freely available from https://www.cp2k.org/ .

 Schuett, Ole; Messmer, Peter; Hutter, Juerg; VandeVondele, Joost. 
 Electronic Structure Calculations on Graphics Processing Units, John Wiley & Sons, Ltd, 173-190 (2016). 
 GPU-Accelerated Sparse Matrix-Matrix Multiplication for Linear Scaling Density Functional Theory.
 http://dx.doi.org/10.1002/9781118670712.ch8


 Borstnik, U; VandeVondele, J; Weber, V; Hutter, J. 
 PARALLEL COMPUTING, 40 (5-6), 47-58 (2014). 
 Sparse matrix multiplication: The distributed block-compressed sparse
 row library.
 http://dx.doi.org/10.1016/j.parco.2014.03.012


 Hutter, J; Iannuzzi, M; Schiffmann, F; VandeVondele, J. 
 WILEY INTERDISCIPLINARY REVIEWS-COMPUTATIONAL MOLECULAR SCIENCE, 4 (1), 15-25 (2014). 
 CP2K: atomistic simulations of condensed matter systems.
 http://dx.doi.org/10.1002/wcms.1159


 Grimme, S; Ehrlich, S; Goerigk, L. 
 JOURNAL OF COMPUTATIONAL CHEMISTRY, 32, 1456 (2011). 
 Effect of the damping function in dispersion corrected density functional theory.
 http://dx.doi.org/10.1002/jcc.21759


 Grimme, S; Antony, J; Ehrlich, S; Krieg, H. 
 JOURNAL OF CHEMICAL PHYSICS, 132 (15), 154104 (2010). 
 A consistent and accurate ab initio parametrization of density
 functional dispersion correction (DFT-D) for the 94 elements H-Pu.
 http://dx.doi.org/10.1063/1.3382344


 VandeVondele, J; Hutter, J. 
 JOURNAL OF CHEMICAL PHYSICS, 127 (11), 114105 (2007). 
 Gaussian basis sets for accurate calculations on molecular systems in
 gas and condensed phases.
 http://dx.doi.org/10.1063/1.2770708


 Krack, M. 
 THEORETICAL CHEMISTRY ACCOUNTS, 114 (1-3), 145-152 (2005). 
 Pseudopotentials for H to Kr optimized for gradient-corrected
 exchange-correlation functionals.
 http://dx.doi.org/10.1007/s00214-005-0655-y


 VandeVondele, J; Krack, M; Mohamed, F; Parrinello, M; Chassaing, T;
 Hutter, J. COMPUTER PHYSICS COMMUNICATIONS, 167 (2), 103-128 (2005). 
 QUICKSTEP: Fast and accurate density functional calculations using a
 mixed Gaussian and plane waves approach.
 http://dx.doi.org/10.1016/j.cpc.2004.12.014


 Frigo, M; Johnson, SG. 
 PROCEEDINGS OF THE IEEE, 93 (2), 216-231 (2005). 
 The design and implementation of FFTW3.
 http://dx.doi.org/10.1109/JPROC.2004.840301


 Kolafa, J. 
 JOURNAL OF COMPUTATIONAL CHEMISTRY, 25 (3), 335-342 (2004). 
 Time-reversible always stable predictor-corrector method for molecular dynamics of polarizable molecules.
 http://dx.doi.org/10.1002/jcc.10385


 VandeVondele, J; Hutter, J. 
 JOURNAL OF CHEMICAL PHYSICS, 118 (10), 4365-4369 (2003). 
 An efficient orbital transformation method for electronic structure
 calculations.
 http://dx.doi.org/10.1063/1.1543154


 Hartwigsen, C; Goedecker, S; Hutter, J. 
 PHYSICAL REVIEW B, 58 (7), 3641-3662 (1998). 
 Relativistic separable dual-space Gaussian pseudopotentials from H to Rn.
 http://dx.doi.org/10.1103/PhysRevB.58.3641


 Lippert, G; Hutter, J; Parrinello, M. 
 MOLECULAR PHYSICS, 92 (3), 477-487 (1997). 
 A hybrid Gaussian and plane wave density functional scheme.
 http://dx.doi.org/10.1080/002689797170220


 Perdew, JP; Burke, K; Ernzerhof, M. 
 PHYSICAL REVIEW LETTERS, 77 (18), 3865-3868 (1996). 
 Generalized gradient approximation made simple.
 http://dx.doi.org/10.1103/PhysRevLett.77.3865


 Goedecker, S; Teter, M; Hutter, J. 
 PHYSICAL REVIEW B, 54 (3), 1703-1710 (1996). 
 Separable dual-space Gaussian pseudopotentials.
 http://dx.doi.org/10.1103/PhysRevB.54.1703


 -------------------------------------------------------------------------------
 -                                                                             -
 -                                T I M I N G                                  -
 -                                                                             -
 -------------------------------------------------------------------------------
 SUBROUTINE                       CALLS  ASD         SELF TIME        TOTAL TIME
                                MAXIMUM       AVERAGE  MAXIMUM  AVERAGE  MAXIMUM
 CP2K                                 1  1.0    0.028    0.030  217.142  217.143
 cp_geo_opt                           1  2.0    0.001    0.001  216.827  216.846
 geoopt_bfgs                          1  3.0    0.008    0.012  216.826  216.846
 cp_eval_at                          53  4.0    0.006    0.007  196.242  196.247
 qs_forces                           52  5.0    0.004    0.004  194.407  194.408
 qs_energies                         53  6.0    0.005    0.025  182.671  182.678
 scf_env_do_scf                      53  7.0    0.003    0.005  161.507  161.508
 scf_env_do_scf_inner_loop          571  8.0    0.021    0.040  153.527  153.528
 rs_pw_transfer                   10144 12.9    0.040    0.053  101.488  117.230
 mp_waitall_1                   2194016 16.7  100.559  116.692  100.559  116.692
 qs_rho_update_rho                  624  9.1    0.004    0.004  111.841  111.859
 calculate_rho_elec                1248 10.1   15.648   98.844  111.837  111.855
 density_rs2pw                     1248 11.1    0.040    0.042   95.582  111.228
 rs_pw_transfer_RS2PW_150          1354 12.9    0.843    0.927   92.282  108.067
 dbcsr_multiply_generic           18651 13.7    0.652    0.795   39.931   41.988
 rebuild_ks_matrix                  623  9.7    0.002    0.012   38.644   38.674
 qs_ks_build_kohn_sham_matrix       623 10.7    0.049    0.062   38.642   38.672
 sum_up_and_integrate               364 11.6    0.030    0.038   21.374   31.341
 integrate_v_rspace                 728 12.6    3.765   23.917   21.344   31.313
 qs_scf_new_mos                     571  9.0    0.003    0.003   28.609   28.650
 qs_scf_loop_do_ot                  571 10.0    0.006    0.079   28.606   28.648
 qs_ks_update_qs_env                624  9.0    0.005    0.005   26.867   26.889
 ot_scf_mini                        571 11.0    0.024    0.054   26.538   26.569
 pw_transfer                      19441 13.3    0.948    0.999   17.987   19.973
 potential_pw2rs                    728 13.6    0.023    0.025   17.526   19.424
 fft_wrap_pw1pw2                  18195 14.3    0.054    0.068   17.026   19.033
 fft3d_ps                         18195 16.3    1.031    1.334   16.418   18.466
 mp_sum_dm                         2132  6.1   17.623   18.081   17.623   18.081
 virial_evaluate                     51  4.0    0.000    0.000   17.566   18.021
 fft_wrap_pw1pw2_150              10291 15.6    0.252    0.315   15.603   17.594
 mp_alltoall_z22v                 18195 18.3   14.063   16.320   14.063   16.320
 mp_sum_l                         87368 14.8   13.587   15.630   13.587   15.630
 multiply_cannon                  18651 14.7    3.382    3.512   14.342   14.753
 ot_mini                            571 12.0    0.003    0.003   14.577   14.582
 yz_to_x                           4213 17.2    0.085    0.123   12.420   14.537
 write_restart                       52  4.0    0.362   14.268    0.367   14.274
 qs_ot_get_derivative               624 13.0    0.004    0.004   12.167   12.198
 qs_ks_update_qs_env_forces          52  6.0    0.000    0.000   11.882   11.909
 init_scf_run                        53  7.0    0.001    0.004   11.362   11.363
 scf_env_initial_rho_setup           53  8.0    0.001    0.003   11.361   11.361
 wfi_extrapolate                     53  9.0    0.005    0.020   11.010   11.011
 make_m2s                         37302 14.7    0.670    0.706    9.595    9.770
 mp_sum_d                         16386 13.9    8.262    9.565    8.262    9.565
 qs_energies_init_hamiltonians       53  7.0    0.001    0.001    7.966    7.975
 init_scf_loop                       53  8.0    0.002    0.012    7.880    7.880
 qs_ot_get_p                       1248 11.8    0.005    0.005    6.920    6.987
 make_images                      37302 15.7    0.799    0.861    6.728    6.873
 calculate_dispersion_pairpot        53  8.0    0.805    6.079    6.596    6.601
 rs_pw_transfer_PW2RS_150           886 14.9    0.684    0.743    5.823    5.909
 qs_ot_get_derivative_taylor        432 14.0    0.009    0.041    5.295    5.333
 qs_vxc_create                      623 11.7    0.008    0.019    5.195    5.217
 -------------------------------------------------------------------------------

 The number of warnings for this run is : 1
 
 -------------------------------------------------------------------------------
  **** **** ******  **  PROGRAM ENDED AT                 2019-07-08 17:56:55.482
 ***** ** ***  *** **   PROGRAM RAN ON            blg9135.int.ets1.calculquebec.
 **    ****   ******    PROGRAM RAN BY                                       rzk
 ***** **    ** ** **   PROGRAM PROCESS ID                                334261
  **** **  *******  **  PROGRAM STOPPED IN /lustre04/scratch/rzk/rzk/GaN-carbene
                                           /443-adatoms-both-2x2/09-BondBreaking
                                           -CH/02-0401-CH-to-NTop-PES/PRACTICE
