 DBCSR| Multiplication driver                                               BLAS
 DBCSR| Multrec recursion limit                                              512
 DBCSR| Multiplication stack size                                           1000
 DBCSR| Maximum elements for images                                    UNLIMITED
 DBCSR| Multiplicative factor virtual images                                   1
 DBCSR| Multiplication size stacks                                             3
 DBCSR| Number of 3D layers                                               SINGLE
 DBCSR| Use MPI memory allocation                                              T
 DBCSR| Use RMA algorithm                                                      F
 DBCSR| Use Communication thread                                               T
 DBCSR| Communication thread load                                             87


  **** **** ******  **  PROGRAM STARTED AT               2019-07-08 13:52:23.356
 ***** ** ***  *** **   PROGRAM STARTED ON        blg9147.int.ets1.calculquebec.
 **    ****   ******    PROGRAM STARTED BY                                   rzk
 ***** **    ** ** **   PROGRAM PROCESS ID                                131147
  **** **  *******  **  PROGRAM STARTED IN /lustre04/scratch/rzk/rzk/GaN-carbene
                                           /443-adatoms-both-2x2/09-BondBreaking
                                           -CH/02-0401-CH-to-NTop-PES/PRACTICE

 CP2K| version string:                    CP2K version 7.0 (Development Version)
 CP2K| source code revision number:                                    svn:18619
 CP2K| cp2kflags: libint fftw3 libxc parallel mpi3 scalapack mkl                
 CP2K| is freely available from                            https://www.cp2k.org/
 CP2K| Program compiled at                          Sun Apr  7 00:48:11 EDT 2019
 CP2K| Program compiled on                      beluga2.int.ets1.calculquebec.ca
 CP2K| Program compiled for                    Beluga-Linux-x86-64-intel-openmpi
 CP2K| Data directory path    /home/rzk/projects/def-rzk/group/cp2k/cp2k-mcgill/
 CP2K| Input file name                                            TEST-1.restart
 
 GLOBAL| Force Environment number                                              1
 GLOBAL| Basis set file name                                        BASIS_MOLOPT
 GLOBAL| Potential file name                                      GTH_POTENTIALS
 GLOBAL| MM Potential file name                                     MM_POTENTIAL
 GLOBAL| Coordinate file name                                      __STD_INPUT__
 GLOBAL| Method name                                                        CP2K
 GLOBAL| Project name                                                       TEST
 GLOBAL| Preferred FFT library                                             FFTW3
 GLOBAL| Preferred diagonalization lib.                                       SL
 GLOBAL| Run type                                                        GEO_OPT
 GLOBAL| All-to-all communication in single precision                          F
 GLOBAL| FFTs using library dependent lengths                                  F
 GLOBAL| Global print level                                               MEDIUM
 GLOBAL| MPI I/O enabled                                                       T
 GLOBAL| Total number of message passing processes                            40
 GLOBAL| Number of threads for this process                                    1
 GLOBAL| This output is from process                                           0
 GLOBAL| CPU model name :  Intel(R) Xeon(R) Gold 6148 CPU @ 2.40GHz

 MEMORY| system memory details [Kb]
 MEMORY|                        rank 0           min           max       average
 MEMORY| MemTotal            196614300     196614300     196614300     196614300
 MEMORY| MemFree             179041928     179041928     179042548     179042238
 MEMORY| Buffers                     0             0             0             0
 MEMORY| Cached                1855568       1855568       1855568       1855568
 MEMORY| Slab                  1100372       1100372       1100372       1100372
 MEMORY| SReclaimable           130520        130520        130520        130520
 MEMORY| MemLikelyFree       181028016     181028016     181028636     181028326


 *** Fundamental physical constants (SI units) ***

 *** Literature: B. J. Mohr and B. N. Taylor,
 ***             CODATA recommended values of the fundamental physical
 ***             constants: 2006, Web Version 5.1
 ***             http://physics.nist.gov/constants

 Speed of light in vacuum [m/s]                             2.99792458000000E+08
 Magnetic constant or permeability of vacuum [N/A**2]       1.25663706143592E-06
 Electric constant or permittivity of vacuum [F/m]          8.85418781762039E-12
 Planck constant (h) [J*s]                                  6.62606896000000E-34
 Planck constant (h-bar) [J*s]                              1.05457162825177E-34
 Elementary charge [C]                                      1.60217648700000E-19
 Electron mass [kg]                                         9.10938215000000E-31
 Electron g factor [ ]                                     -2.00231930436220E+00
 Proton mass [kg]                                           1.67262163700000E-27
 Fine-structure constant                                    7.29735253760000E-03
 Rydberg constant [1/m]                                     1.09737315685270E+07
 Avogadro constant [1/mol]                                  6.02214179000000E+23
 Boltzmann constant [J/K]                                   1.38065040000000E-23
 Atomic mass unit [kg]                                      1.66053878200000E-27
 Bohr radius [m]                                            5.29177208590000E-11

 *** Conversion factors ***

 [u] -> [a.u.]                                              1.82288848426455E+03
 [Angstrom] -> [Bohr] = [a.u.]                              1.88972613288564E+00
 [a.u.] = [Bohr] -> [Angstrom]                              5.29177208590000E-01
 [a.u.] -> [s]                                              2.41888432650478E-17
 [a.u.] -> [fs]                                             2.41888432650478E-02
 [a.u.] -> [J]                                              4.35974393937059E-18
 [a.u.] -> [N]                                              8.23872205491840E-08
 [a.u.] -> [K]                                              3.15774647902944E+05
 [a.u.] -> [kJ/mol]                                         2.62549961709828E+03
 [a.u.] -> [kcal/mol]                                       6.27509468713739E+02
 [a.u.] -> [Pa]                                             2.94210107994716E+13
 [a.u.] -> [bar]                                            2.94210107994716E+08
 [a.u.] -> [atm]                                            2.90362800883016E+08
 [a.u.] -> [eV]                                             2.72113838565563E+01
 [a.u.] -> [Hz]                                             6.57968392072181E+15
 [a.u.] -> [1/cm] (wave numbers)                            2.19474631370540E+05
 [a.u./Bohr**2] -> [1/cm]                                   5.14048714338585E+03
 
          ----------------------------------------------------------------------
 COLVARS| COLVAR INPUT INDEX:        1
 COLVARS| BOND          >>> ATOMS:                                     3       4
          ----------------------------------------------------------------------

 CELL_TOP| Volume [angstrom^3]:                                          125.000
 CELL_TOP| Vector a [angstrom     5.000     0.000     0.000    |a| =       5.000
 CELL_TOP| Vector b [angstrom     0.000     5.000     0.000    |b| =       5.000
 CELL_TOP| Vector c [angstrom     0.000     0.000     5.000    |c| =       5.000
 CELL_TOP| Angle (b,c), alpha [degree]:                                   90.000
 CELL_TOP| Angle (a,c), beta  [degree]:                                   90.000
 CELL_TOP| Angle (a,b), gamma [degree]:                                   90.000
 CELL_TOP| Numerically orthorhombic:                                         YES
 RESTRAINT| Active restraint on COLLECTIVE section Nr.     1. K [a.u.]=10.000000
 
 GENERATE|  Preliminary Number of Bonds generated:                             0
 GENERATE|  Achieved consistency in connectivity generation.

 CELL| Volume [angstrom^3]:                                              125.000
 CELL| Vector a [angstrom]:       5.000     0.000     0.000    |a| =       5.000
 CELL| Vector b [angstrom]:       0.000     5.000     0.000    |b| =       5.000
 CELL| Vector c [angstrom]:       0.000     0.000     5.000    |c| =       5.000
 CELL| Angle (b,c), alpha [degree]:                                       90.000
 CELL| Angle (a,c), beta  [degree]:                                       90.000
 CELL| Angle (a,b), gamma [degree]:                                       90.000
 CELL| Numerically orthorhombic:                                             YES

 CELL_REF| Volume [angstrom^3]:                                          125.000
 CELL_REF| Vector a [angstrom     5.000     0.000     0.000    |a| =       5.000
 CELL_REF| Vector b [angstrom     0.000     5.000     0.000    |b| =       5.000
 CELL_REF| Vector c [angstrom     0.000     0.000     5.000    |c| =       5.000
 CELL_REF| Angle (b,c), alpha [degree]:                                   90.000
 CELL_REF| Angle (a,c), beta  [degree]:                                   90.000
 CELL_REF| Angle (a,b), gamma [degree]:                                   90.000
 CELL_REF| Numerically orthorhombic:                                         YES

 *******************************************************************************
 *******************************************************************************
 **                                                                           **
 **     #####                         ##              ##                      **
 **    ##   ##            ##          ##              ##                      **
 **   ##     ##                       ##            ######                    **
 **   ##     ##  ##   ##  ##   #####  ##  ##   ####   ##    #####    #####    **
 **   ##     ##  ##   ##  ##  ##      ## ##   ##      ##   ##   ##  ##   ##   **
 **   ##  ## ##  ##   ##  ##  ##      ####     ###    ##   ######   ######    **
 **    ##  ###   ##   ##  ##  ##      ## ##      ##   ##   ##       ##        **
 **     #######   #####   ##   #####  ##  ##  ####    ##    #####   ##        **
 **           ##                                                    ##        **
 **                                                                           **
 **                                                ... make the atoms dance   **
 **                                                                           **
 **            Copyright (C) by CP2K developers group (2000 - 2018)           **
 **                                                                           **
 *******************************************************************************

 DFT| Spin unrestricted (spin-polarized) Kohn-Sham calculation               UKS
 DFT| Multiplicity                                                             1
 DFT| Number of spin states                                                    2
 DFT| Charge                                                                   0
 DFT| Self-interaction correction (SIC)                                       NO
 DFT| Cutoffs: density                                              1.000000E-10
 DFT|          gradient                                             1.000000E-10
 DFT|          tau                                                  1.000000E-10
 DFT|          cutoff_smoothing_range                               0.000000E+00
 DFT| XC density smoothing                                                  NONE
 DFT| XC derivatives                                                          PW
 FUNCTIONAL| ROUTINE=NEW
 FUNCTIONAL| PBE:
 FUNCTIONAL| J.P.Perdew, K.Burke, M.Ernzerhof, Phys. Rev. Letter, vol. 77, n 18,
 FUNCTIONAL|  pp. 3865-3868, (1996){spin polarized}                             
 vdW POTENTIAL|                                                   Pair Potential
 vdW POTENTIAL|          DFT-D3 (Version 3.1)
 vdW POTENTIAL|          Potential Form: S. Grimme et al, JCP 132: 154104 (2010)
 vdW POTENTIAL|          Zero Damping
 vdW POTENTIAL|          Cutoff Radius [Bohr]:                             18.90
 vdW POTENTIAL|          s6 Scaling Factor:                               1.0000
 vdW POTENTIAL|          sr6 Scaling Factor:                              1.2170
 vdW POTENTIAL|          s8 Scaling Factor:                               0.7220
 vdW POTENTIAL|          Cutoff for CN calculation:                   0.1000E-05

 QS| Method:                                                                 GPW
 QS| Density plane wave grid type                        NON-SPHERICAL FULLSPACE
 QS| Number of grid levels:                                                    5
 QS| Density cutoff [a.u.]:                                                150.0
 QS| Multi grid cutoff [a.u.]: 1) grid level                               150.0
 QS|                           2) grid level                                50.0
 QS|                           3) grid level                                16.7
 QS|                           4) grid level                                 5.6
 QS|                           5) grid level                                 1.9
 QS| Grid level progression factor:                                          3.0
 QS| Relative density cutoff [a.u.]:                                        20.0
 QS| Consistent realspace mapping and integration 
 QS| Interaction thresholds: eps_pgf_orb:                                1.0E-07
 QS|                         eps_filter_matrix:                          0.0E+00
 QS|                         eps_core_charge:                            1.0E-16
 QS|                         eps_rho_gspace:                             1.0E-14
 QS|                         eps_rho_rspace:                             1.0E-14
 QS|                         eps_gvg_rspace:                             1.0E-07
 QS|                         eps_ppl:                                    1.0E-02
 QS|                         eps_ppnl:                                   1.0E-09


 ATOMIC KIND INFORMATION

  1. Atomic kind: O                                     Number of atoms:       2

     Orbital Basis Set                                     DZVP-MOLOPT-SR-GTH-q6

       Number of orbital shell sets:                                           1
       Number of orbital shells:                                               5
       Number of primitive Cartesian functions:                                5
       Number of Cartesian basis functions:                                   14
       Number of spherical basis functions:                                   13
       Norm type:                                                              2

       Normalised Cartesian orbitals:

                        Set   Shell   Orbital            Exponent    Coefficient

                          1       1    2s               10.389228       0.396646
                                                         3.849621       0.208811
                                                         1.388401      -0.301641
                                                         0.496955      -0.274061
                                                         0.162492      -0.033677

                          1       2    3s               10.389228       0.303673
                                                         3.849621       0.240943
                                                         1.388401      -0.313066
                                                         0.496955      -0.043055
                                                         0.162492       0.213991

                          1       3    3px              10.389228      -1.530415
                                                         3.849621      -1.371928
                                                         1.388401      -0.761951
                                                         0.496955      -0.253695
                                                         0.162492      -0.035541
                          1       3    3py              10.389228      -1.530415
                                                         3.849621      -1.371928
                                                         1.388401      -0.761951
                                                         0.496955      -0.253695
                                                         0.162492      -0.035541
                          1       3    3pz              10.389228      -1.530415
                                                         3.849621      -1.371928
                                                         1.388401      -0.761951
                                                         0.496955      -0.253695
                                                         0.162492      -0.035541

                          1       4    4px              10.389228      -0.565392
                                                         3.849621      -0.038231
                                                         1.388401      -0.382373
                                                         0.496955       0.179070
                                                         0.162492       0.122714
                          1       4    4py              10.389228      -0.565392
                                                         3.849621      -0.038231
                                                         1.388401      -0.382373
                                                         0.496955       0.179070
                                                         0.162492       0.122714
                          1       4    4pz              10.389228      -0.565392
                                                         3.849621      -0.038231
                                                         1.388401      -0.382373
                                                         0.496955       0.179070
                                                         0.162492       0.122714

                          1       5    4dx2             10.389228       1.867377
                                                         3.849621       0.670994
                                                         1.388401       1.353441
                                                         0.496955       0.273538
                                                         0.162492       0.006620
                          1       5    4dxy             10.389228       3.234392
                                                         3.849621       1.162195
                                                         1.388401       2.344229
                                                         0.496955       0.473781
                                                         0.162492       0.011466
                          1       5    4dxz             10.389228       3.234392
                                                         3.849621       1.162195
                                                         1.388401       2.344229
                                                         0.496955       0.473781
                                                         0.162492       0.011466
                          1       5    4dy2             10.389228       1.867377
                                                         3.849621       0.670994
                                                         1.388401       1.353441
                                                         0.496955       0.273538
                                                         0.162492       0.006620
                          1       5    4dyz             10.389228       3.234392
                                                         3.849621       1.162195
                                                         1.388401       2.344229
                                                         0.496955       0.473781
                                                         0.162492       0.011466
                          1       5    4dz2             10.389228       1.867377
                                                         3.849621       0.670994
                                                         1.388401       1.353441
                                                         0.496955       0.273538
                                                         0.162492       0.006620

     GTH Potential information for                                    GTH-PBE-q6

       Description:                       Goedecker-Teter-Hutter pseudopotential
                                           Goedecker et al., PRB 54, 1703 (1996)
                                          Hartwigsen et al., PRB 58, 3641 (1998)
                                                      Krack, TCA 114, 145 (2005)

       Gaussian exponent of the core charge distribution:               8.360253
       Electronic configuration (s p d ...):                               2   4

       Parameters of the local part of the GTH pseudopotential:

                          rloc        C1          C2          C3          C4
                        0.244554  -16.667215    2.487311

       Parameters of the non-local part of the GTH pseudopotential:

                   l      r(l)      h(i,j,l)

                   0    0.220956   18.337458
                   1    0.211332

  2. Atomic kind: H                                     Number of atoms:       4

     Orbital Basis Set                                     DZVP-MOLOPT-SR-GTH-q1

       Number of orbital shell sets:                                           1
       Number of orbital shells:                                               3
       Number of primitive Cartesian functions:                                5
       Number of Cartesian basis functions:                                    5
       Number of spherical basis functions:                                    5
       Norm type:                                                              2

       Normalised Cartesian orbitals:

                        Set   Shell   Orbital            Exponent    Coefficient

                          1       1    2s               10.068468      -0.133023
                                                         2.680223      -0.177618
                                                         0.791502      -0.258419
                                                         0.239116      -0.107525
                                                         0.082193      -0.014019

                          1       2    3s               10.068468       0.344673
                                                         2.680223       1.819821
                                                         0.791502      -0.999069
                                                         0.239116       0.017430
                                                         0.082193       0.082660

                          1       3    3px              10.068468       0.155326
                                                         2.680223       0.367157
                                                         0.791502       0.311480
                                                         0.239116       0.080105
                                                         0.082193       0.033440
                          1       3    3py              10.068468       0.155326
                                                         2.680223       0.367157
                                                         0.791502       0.311480
                                                         0.239116       0.080105
                                                         0.082193       0.033440
                          1       3    3pz              10.068468       0.155326
                                                         2.680223       0.367157
                                                         0.791502       0.311480
                                                         0.239116       0.080105
                                                         0.082193       0.033440

     GTH Potential information for                                    GTH-PBE-q1

       Description:                       Goedecker-Teter-Hutter pseudopotential
                                           Goedecker et al., PRB 54, 1703 (1996)
                                          Hartwigsen et al., PRB 58, 3641 (1998)
                                                      Krack, TCA 114, 145 (2005)

       Gaussian exponent of the core charge distribution:              12.500000
       Electronic configuration (s p d ...):                                   1

       Parameters of the local part of the GTH pseudopotential:

                          rloc        C1          C2          C3          C4
                        0.200000   -4.178900    0.724463


 MOLECULE KIND INFORMATION


 All atoms are their own molecule, skipping detailed information


 TOTAL NUMBERS AND MAXIMUM NUMBERS

  Total number of            - Atomic kinds:                                   2
                             - Atoms:                                          6
                             - Shell sets:                                     6
                             - Shells:                                        22
                             - Primitive Cartesian functions:                 30
                             - Cartesian basis functions:                     48
                             - Spherical basis functions:                     46

  Maximum angular momentum of- Orbital basis functions:                        2
                             - Local part of the GTH pseudopotential:          2
                             - Non-local part of the GTH pseudopotential:      0


 MODULE QUICKSTEP:  ATOMIC COORDINATES IN angstrom

  Atom  Kind  Element       X           Y           Z          Z(eff)       Mass

       1     1 O    8   -1.395098   -0.183428   -0.929374      6.00      15.9994
       2     2 H    1   -1.394999    0.555092   -1.556589      1.00       1.0079
       3     2 H    1   -0.527609   -0.097282   -0.468699      1.00       1.0079
       4     1 O    8    1.116112    0.090678    0.465414      6.00      15.9994
       5     2 H    1    1.114989   -0.654515    1.084712      1.00       1.0079
       6     2 H    1    1.984104    0.001652   -0.002464      1.00       1.0079




 SCF PARAMETERS         Density guess:                                    ATOMIC
                        --------------------------------------------------------
                        max_scf:                                              80
                        max_scf_history:                                       0
                        max_diis:                                              4
                        --------------------------------------------------------
                        eps_scf:                                        5.00E-06
                        eps_scf_history:                                0.00E+00
                        eps_diis:                                       1.00E-01
                        eps_eigval:                                     1.00E-05
                        --------------------------------------------------------
                        level_shift [a.u.]:                                 0.00
                        --------------------------------------------------------
                        Outer loop SCF in use 
                        No variables optimised in outer loop
                        eps_scf                                         5.00E-06
                        max_scf                                                4
                        No outer loop optimization
                        step_size                                       5.00E-01

 PW_GRID| Information for grid number                                          1
 PW_GRID| Grid distributed over                                    40 processors
 PW_GRID| Real space group dimensions                                    40    1
 PW_GRID| the grid is blocked:                                                NO
 PW_GRID| Cutoff [a.u.]                                                    150.0
 PW_GRID| spherical cutoff:                                                   NO
 PW_GRID|   Bounds   1            -27      26                Points:          54
 PW_GRID|   Bounds   2            -27      26                Points:          54
 PW_GRID|   Bounds   3            -27      26                Points:          54
 PW_GRID| Volume element (a.u.^3)  0.5357E-02     Volume (a.u.^3)       843.5418
 PW_GRID| Grid span                                                    FULLSPACE
 PW_GRID|   Distribution                         Average         Max         Min
 PW_GRID|   G-Vectors                             3936.6        3942        3888
 PW_GRID|   G-Rays                                  72.9          73          72
 PW_GRID|   Real Space Points                     3936.6        5832        2916

 PW_GRID| Information for grid number                                          2
 PW_GRID| Grid distributed over                                    40 processors
 PW_GRID| Real space group dimensions                                     5    8
 PW_GRID| the grid is blocked:                                                NO
 PW_GRID| Cutoff [a.u.]                                                     50.0
 PW_GRID| spherical cutoff:                                                   NO
 PW_GRID|   Bounds   1            -16      15                Points:          32
 PW_GRID|   Bounds   2            -16      15                Points:          32
 PW_GRID|   Bounds   3            -16      15                Points:          32
 PW_GRID| Volume element (a.u.^3)  0.2574E-01     Volume (a.u.^3)       843.5418
 PW_GRID| Grid span                                                    FULLSPACE
 PW_GRID|   Distribution                         Average         Max         Min
 PW_GRID|   G-Vectors                              819.2         896         768
 PW_GRID|   G-Rays                                  25.6          28          24
 PW_GRID|   Real Space Points                      819.2         896         768

 PW_GRID| Information for grid number                                          3
 PW_GRID| Grid distributed over                                    40 processors
 PW_GRID| Real space group dimensions                                     5    8
 PW_GRID| the grid is blocked:                                                NO
 PW_GRID| Cutoff [a.u.]                                                     16.7
 PW_GRID| spherical cutoff:                                                   NO
 PW_GRID|   Bounds   1             -9       8                Points:          18
 PW_GRID|   Bounds   2             -9       8                Points:          18
 PW_GRID|   Bounds   3             -9       8                Points:          18
 PW_GRID| Volume element (a.u.^3)  0.1446         Volume (a.u.^3)       843.5418
 PW_GRID| Grid span                                                    FULLSPACE
 PW_GRID|   Distribution                         Average         Max         Min
 PW_GRID|   G-Vectors                              145.8         180         126
 PW_GRID|   G-Rays                                   8.1          10           7
 PW_GRID|   Real Space Points                      145.8         216         108

 PW_GRID| Information for grid number                                          4
 PW_GRID| Grid distributed over                                    40 processors
 PW_GRID| Real space group dimensions                                     5    8
 PW_GRID| the grid is blocked:                                                NO
 PW_GRID| Cutoff [a.u.]                                                      5.6
 PW_GRID| spherical cutoff:                                                   NO
 PW_GRID|   Bounds   1             -6       5                Points:          12
 PW_GRID|   Bounds   2             -6       5                Points:          12
 PW_GRID|   Bounds   3             -6       5                Points:          12
 PW_GRID| Volume element (a.u.^3)  0.4882         Volume (a.u.^3)       843.5418
 PW_GRID| Grid span                                                    FULLSPACE
 PW_GRID|   Distribution                         Average         Max         Min
 PW_GRID|   G-Vectors                               43.2          60          36
 PW_GRID|   G-Rays                                   3.6           5           3
 PW_GRID|   Real Space Points                       43.2          72          24

 PW_GRID| Information for grid number                                          5
 PW_GRID| Grid distributed over                                    40 processors
 PW_GRID| Real space group dimensions                                     5    8
 PW_GRID| the grid is blocked:                                                NO
 PW_GRID| Cutoff [a.u.]                                                      1.9
 PW_GRID| spherical cutoff:                                                   NO
 PW_GRID|   Bounds   1             -3       2                Points:           6
 PW_GRID|   Bounds   2             -3       2                Points:           6
 PW_GRID|   Bounds   3             -3       2                Points:           6
 PW_GRID| Volume element (a.u.^3)   3.905         Volume (a.u.^3)       843.5418
 PW_GRID| Grid span                                                    FULLSPACE
 PW_GRID|   Distribution                         Average         Max         Min
 PW_GRID|   G-Vectors                                5.4          12           0
 PW_GRID|   G-Rays                                   0.9           2           0
 PW_GRID|   Real Space Points                        5.4          12           0

 POISSON| Solver                                                        PERIODIC
 POISSON| Periodicity                                                        XYZ

 RS_GRID| Information for grid number                                          1
 RS_GRID|   Bounds   1            -27      26                Points:          54
 RS_GRID|   Bounds   2            -27      26                Points:          54
 RS_GRID|   Bounds   3            -27      26                Points:          54
 RS_GRID| Real space fully replicated
 RS_GRID| Group size                                                           1

 RS_GRID| Information for grid number                                          2
 RS_GRID|   Bounds   1            -16      15                Points:          32
 RS_GRID|   Bounds   2            -16      15                Points:          32
 RS_GRID|   Bounds   3            -16      15                Points:          32
 RS_GRID| Real space fully replicated
 RS_GRID| Group size                                                           1

 RS_GRID| Information for grid number                                          3
 RS_GRID|   Bounds   1             -9       8                Points:          18
 RS_GRID|   Bounds   2             -9       8                Points:          18
 RS_GRID|   Bounds   3             -9       8                Points:          18
 RS_GRID| Real space fully replicated
 RS_GRID| Group size                                                           1

 RS_GRID| Information for grid number                                          4
 RS_GRID|   Bounds   1             -6       5                Points:          12
 RS_GRID|   Bounds   2             -6       5                Points:          12
 RS_GRID|   Bounds   3             -6       5                Points:          12
 RS_GRID| Real space fully replicated
 RS_GRID| Group size                                                           1

 RS_GRID| Information for grid number                                          5
 RS_GRID|   Bounds   1             -3       2                Points:           6
 RS_GRID|   Bounds   2             -3       2                Points:           6
 RS_GRID|   Bounds   3             -3       2                Points:           6
 RS_GRID| Real space fully replicated
 RS_GRID| Group size                                                           1

 BFGS| Use rational function optimization for step estimation:                NO
 BFGS| Use model Hessian for initial guess:                                  YES
 BFGS| Restart Hessian:                                                       NO
 BFGS| Trust radius:                                                       0.472

 *******************************************************************************
 ***                     STARTING GEOMETRY OPTIMIZATION                      ***
 ***                                   BFGS                                  ***
 *******************************************************************************

 Spin 1

 Number of electrons:                                                          8
 Number of occupied orbitals:                                                  8
 Number of molecular orbitals:                                                 8

 Spin 2

 Number of electrons:                                                          8
 Number of occupied orbitals:                                                  8
 Number of molecular orbitals:                                                 8

 Number of orbital functions:                                                 46
 Number of independent orbital functions:                                     46

 Extrapolation method: initial_guess

 Atomic guess: The first density matrix is obtained in terms of atomic orbitals
               and electronic configurations assigned to each atomic kind

 Guess for atomic kind: O

 Electronic structure
    Total number of core electrons                                          2.00
    Total number of valence electrons                                       6.00
    Total number of electrons                                               8.00
    Multiplicity                                                   not specified
    S   [  2.00] 2.00
    P      4.00
 

 *******************************************************************************
                  Iteration          Convergence                     Energy [au]
 *******************************************************************************
                          1        0.702811                     -15.577904332270
                          2        0.612408                     -15.588447180504
                          3        0.955344E-02                 -15.655871208406
                          4        0.223754E-02                 -15.655885053552
                          5        0.157183E-02                 -15.655885461027
                          6        0.124953E-02                 -15.655885607150
                          7        0.312011E-06                 -15.655885858066

 Energy components [Hartree]           Total Energy ::          -15.655885858066
                                        Band Energy ::           -2.983128125584
                                     Kinetic Energy ::           11.754765134683
                                   Potential Energy ::          -27.410650992750
                                      Virial (-V/T) ::            2.331875684345
                                        Core Energy ::          -26.153522949072
                                          XC Energy ::           -3.157392363346
                                     Coulomb Energy ::           13.655029454351
                       Total Pseudopotential Energy ::          -37.943026860963
                       Local Pseudopotential Energy ::          -39.220419683052
                    Nonlocal Pseudopotential Energy ::            1.277392822089
                                        Confinement ::            0.347387772086

 Orbital energies  State     L     Occupation   Energy[a.u.]          Energy[eV]

                       1     0          2.000      -0.861522          -23.443215
 
                       1     1          4.000      -0.315021           -8.572154
 

 Total Electron Density at R=0:                                         0.000093

 Guess for atomic kind: H

 Electronic structure
    Total number of core electrons                                          0.00
    Total number of valence electrons                                       1.00
    Total number of electrons                                               1.00
    Multiplicity                                                   not specified
    S      1.00
 

 *******************************************************************************
                  Iteration          Convergence                     Energy [au]
 *******************************************************************************
                          1        0.250972E-02                  -0.375256815885
                          2        0.570752E-04                  -0.375258666164
                          3        0.832405E-09                  -0.375258667122

 Energy components [Hartree]           Total Energy ::           -0.375258667122
                                        Band Energy ::           -0.076317618391
                                     Kinetic Energy ::            0.771356566341
                                   Potential Energy ::           -1.146615233463
                                      Virial (-V/T) ::            1.486491829455
                                        Core Energy ::           -0.456090715790
                                          XC Energy ::           -0.314218627334
                                     Coulomb Energy ::            0.395050676003
                       Total Pseudopotential Energy ::           -1.238482237174
                       Local Pseudopotential Energy ::           -1.238482237174
                    Nonlocal Pseudopotential Energy ::            0.000000000000
                                        Confinement ::            0.110349550431

 Orbital energies  State     L     Occupation   Energy[a.u.]          Energy[eV]

                       1     0          1.000      -0.076318           -2.076708
 

 Total Electron Density at R=0:                                         0.425022

 Spin 1
 Re-scaling the density matrix to get the right number of electrons for spin 1
                  # Electrons              Trace(P)               Scaling factor
                            8                 8.004                        0.999

 Spin 2
 Re-scaling the density matrix to get the right number of electrons for spin 2
                  # Electrons              Trace(P)               Scaling factor
                            8                 8.004                        0.999


 SCF WAVEFUNCTION OPTIMIZATION

  ----------------------------------- OT ---------------------------------------
  Minimizer      : CG                  : conjugate gradient
  Preconditioner : FULL_ALL            : diagonalization, state selective
  Precond_solver : DEFAULT
  Line search    : 2PNT                : 2 energies, one gradient
  stepsize       :    0.15000000                  energy_gap     :    0.08000000
  eps_taylor     :   0.10000E-15                  max_taylor     :             4
  ----------------------------------- OT ---------------------------------------

  Step     Update method      Time    Convergence         Total energy    Change
  ------------------------------------------------------------------------------
     1 OT CG       0.15E+00    0.2     0.17139290       -31.9202745474 -3.19E+01
     2 OT LS       0.92E-01    0.2                      -32.5151532452
     3 OT CG       0.92E-01    0.3     0.15190356       -32.8820706995 -9.62E-01
     4 OT LS       0.16E+00    0.2                      -33.8762733970
     5 OT CG       0.16E+00    0.3     0.12909717       -33.4737718012 -5.92E-01
     6 OT LS       0.12E+00    0.2                      -34.1379073636
     7 OT CG       0.12E+00    0.3     0.05360750       -34.2349161386 -7.61E-01
     8 OT LS       0.13E+00    0.3                      -34.3651012630
     9 OT CG       0.13E+00    0.3     0.03356551       -34.3648511399 -1.30E-01
    10 OT LS       0.15E+00    0.2                      -34.4239063180
    11 OT CG       0.15E+00    0.3     0.02339893       -34.4249355585 -6.01E-02
    12 OT LS       0.11E+00    0.2                      -34.4444362307
    13 OT CG       0.11E+00    0.3     0.01131615       -34.4471218496 -2.22E-02
    14 OT LS       0.15E+00    0.2                      -34.4538883895
    15 OT CG       0.15E+00    0.3     0.00658126       -34.4543988466 -7.28E-03
    16 OT LS       0.15E+00    0.2                      -34.4568417798
    17 OT CG       0.15E+00    0.3     0.00419136       -34.4568417673 -2.44E-03
    18 OT LS       0.11E+00    0.2                      -34.4574883457
    19 OT CG       0.11E+00    0.3     0.00220814       -34.4575791924 -7.37E-04
    20 OT LS       0.18E+00    0.2                      -34.4578608607
    21 OT CG       0.18E+00    0.3     0.00147716       -34.4579052099 -3.26E-04
    22 OT LS       0.14E+00    0.2                      -34.4580045940
    23 OT CG       0.14E+00    0.3     0.00091643       -34.4580157900 -1.11E-04
    24 OT LS       0.13E+00    0.2                      -34.4580572488
    25 OT CG       0.13E+00    0.3     0.00050316       -34.4580572784 -4.15E-05
    26 OT LS       0.16E+00    0.2                      -34.4580719148
    27 OT CG       0.16E+00    0.3     0.00034633       -34.4580723510 -1.51E-05
    28 OT LS       0.13E+00    0.2                      -34.4580777753
    29 OT CG       0.13E+00    0.3     0.00019079       -34.4580781072 -5.76E-06
    30 OT LS       0.16E+00    0.2                      -34.4580801771
    31 OT CG       0.16E+00    0.3     0.00012127       -34.4580802500 -2.14E-06
    32 OT LS       0.13E+00    0.2                      -34.4580809528
    33 OT CG       0.13E+00    0.3     0.00007314       -34.4580809786 -7.29E-07
    34 OT LS       0.13E+00    0.2                      -34.4580812370
    35 OT CG       0.13E+00    0.3     0.00003856       -34.4580812372 -2.59E-07
    36 OT LS       0.17E+00    0.2                      -34.4580813247
    37 OT CG       0.17E+00    0.3     0.00002474       -34.4580813291 -9.19E-08
    38 OT LS       0.13E+00    0.2                      -34.4580813542
    39 OT CG       0.13E+00    0.3     0.00001554       -34.4580813574 -2.83E-08
    40 OT LS       0.15E+00    0.2                      -34.4580813706
    41 OT CG       0.15E+00    0.3     0.00000853       -34.4580813710 -1.36E-08
    42 OT LS       0.17E+00    0.2                      -34.4580813755
    43 OT CG       0.17E+00    0.3     0.00000608       -34.4580813755 -4.51E-09
    44 OT LS       0.13E+00    0.2                      -34.4580813770
    45 OT CG       0.13E+00    0.3     0.00000347       -34.4580813772 -1.70E-09

  *** SCF run converged in    45 steps ***


  Electronic density on regular grids:        -15.9999997552        0.0000002448
  Core density on regular grids:               16.0000000001        0.0000000001
  Total charge density on r-space grids:        0.0000002449
  Total charge density g-space grids:           0.0000002449

  Overlap energy of the core charge distribution:               0.00000006661359
  Self energy of the core charge distribution:                -88.69430999347530
  Core Hamiltonian energy:                                     25.84112069916990
  Hartree energy:                                              36.87446519549250
  Exchange-correlation energy:                                 -8.47664868621596
  Dispersion energy:                                           -0.00270865882074

  Total energy:                                               -34.45808137723602

  outer SCF iter =    1 RMS gradient =   0.35E-05 energy =        -34.4580813772
  outer SCF loop converged in   1 iterations or   45 steps


  Integrated absolute spin density  :                               0.0000000000
  Ideal and single determinant S**2 :                    0.000000      -0.000000

 !-----------------------------------------------------------------------------!
                     Mulliken Population Analysis

 #  Atom  Element  Kind  Atomic population (alpha,beta) Net charge  Spin moment
       1     O        1         3.140315     3.140315    -0.280630     0.000000
       2     H        2         0.429145     0.429145     0.141710    -0.000000
       3     H        2         0.429347     0.429347     0.141306    -0.000000
       4     O        1         3.142820     3.142820    -0.285640    -0.000000
       5     H        2         0.429648     0.429648     0.140705    -0.000000
       6     H        2         0.428726     0.428726     0.142548     0.000000
 # Total charge and spin        8.000000     8.000000    -0.000000    -0.000000

 !-----------------------------------------------------------------------------!

 !-----------------------------------------------------------------------------!
                           Hirshfeld Charges

  #Atom  Element  Kind  Ref Charge     Population       Spin moment  Net charge
      1       O      1       6.000    3.572   3.572            0.000     -1.145
      2       H      2       1.000    0.219   0.219           -0.000      0.562
      3       H      2       1.000    0.209   0.209           -0.000      0.583
      4       O      1       6.000    3.573   3.573           -0.000     -1.145
      5       H      2       1.000    0.219   0.219           -0.000      0.562
      6       H      2       1.000    0.208   0.208            0.000      0.584

  Total Charge                                                            0.001
 !-----------------------------------------------------------------------------!

 ENERGY| Total FORCE_EVAL ( QS ) energy (a.u.):              -33.030731878052677


 --------  Informations at step =     0 ------------
  Optimization Method        =                 BFGS
  Total Energy               =       -33.0307318781
  Used time                  =               12.401
 ---------------------------------------------------

 --------------------------
 OPTIMIZATION STEP:      1
 --------------------------

  Step is scaled; Scaling factor =  0.00985

 Spin 1

 Number of electrons:                                                          8
 Number of occupied orbitals:                                                  8
 Number of molecular orbitals:                                                 8

 Spin 2

 Number of electrons:                                                          8
 Number of occupied orbitals:                                                  8
 Number of molecular orbitals:                                                 8

 Number of orbital functions:                                                 46
 Number of independent orbital functions:                                     46

 Parameters for the always stable predictor-corrector (ASPC) method:

  ASPC order: 0

  B(1) =   1.000000

 Parameters for the always stable predictor-corrector (ASPC) method:

  ASPC order: 0

  B(1) =   1.000000

 Extrapolation method: ASPC


 SCF WAVEFUNCTION OPTIMIZATION

  ----------------------------------- OT ---------------------------------------
  Minimizer      : CG                  : conjugate gradient
  Preconditioner : FULL_ALL            : diagonalization, state selective
  Precond_solver : DEFAULT
  Line search    : 2PNT                : 2 energies, one gradient
  stepsize       :    0.15000000                  energy_gap     :    0.08000000
  eps_taylor     :   0.10000E-15                  max_taylor     :             4
  ----------------------------------- OT ---------------------------------------

  Step     Update method      Time    Convergence         Total energy    Change
  ------------------------------------------------------------------------------
     1 OT CG       0.15E+00    0.2     0.01531597       -34.3859821078 -3.44E+01
     2 OT LS       0.43E+00    0.2                      -34.4073878762
     3 OT CG       0.43E+00    0.3     0.00666448       -34.4228302046 -3.68E-02
     4 OT LS       0.20E+00    0.2                      -34.4218264845
     5 OT CG       0.20E+00    0.3     0.00070730       -34.4260281238 -3.20E-03
     6 OT LS       0.34E+00    0.2                      -34.4260804973
     7 OT CG       0.34E+00    0.3     0.00019282       -34.4260911804 -6.31E-05
     8 OT LS       0.21E+00    0.2                      -34.4260930627
     9 OT CG       0.21E+00    0.3     0.00005888       -34.4260941128 -2.93E-06
    10 OT LS       0.31E+00    0.2                      -34.4260944732
    11 OT CG       0.31E+00    0.3     0.00001233       -34.4260945138 -4.01E-07
    12 OT LS       0.20E+00    0.2                      -34.4260945218
    13 OT CG       0.20E+00    0.3     0.00000383       -34.4260945252 -1.14E-08

  *** SCF run converged in    13 steps ***


  Electronic density on regular grids:        -15.9999999924        0.0000000076
  Core density on regular grids:               16.0000000000        0.0000000000
  Total charge density on r-space grids:        0.0000000076
  Total charge density g-space grids:           0.0000000076

  Overlap energy of the core charge distribution:               0.00000001563270
  Self energy of the core charge distribution:                -88.69430999347530
  Core Hamiltonian energy:                                     25.75020709054186
  Hartree energy:                                              36.95938159185233
  Exchange-correlation energy:                                 -8.43880100890234
  Dispersion energy:                                           -0.00257222082932

  Total energy:                                               -34.42609452518009

  outer SCF iter =    1 RMS gradient =   0.38E-05 energy =        -34.4260945252
  outer SCF loop converged in   1 iterations or   13 steps


  Integrated absolute spin density  :                               0.0000000000
  Ideal and single determinant S**2 :                    0.000000      -0.000000

 !-----------------------------------------------------------------------------!
                     Mulliken Population Analysis

 #  Atom  Element  Kind  Atomic population (alpha,beta) Net charge  Spin moment
       1     O        1         3.184699     3.184699    -0.369398    -0.000000
       2     H        2         0.428386     0.428386     0.143228    -0.000000
       3     H        2         0.439254     0.439254     0.121493    -0.000000
       4     O        1         3.122783     3.122783    -0.245566    -0.000000
       5     H        2         0.413434     0.413434     0.173132    -0.000000
       6     H        2         0.411444     0.411444     0.177112    -0.000000
 # Total charge and spin        8.000000     8.000000    -0.000000    -0.000000

 !-----------------------------------------------------------------------------!

 !-----------------------------------------------------------------------------!
                           Hirshfeld Charges

  #Atom  Element  Kind  Ref Charge     Population       Spin moment  Net charge
      1       O      1       6.000    3.596   3.596           -0.000     -1.192
      2       H      2       1.000    0.218   0.218           -0.000      0.564
      3       H      2       1.000    0.196   0.196           -0.000      0.609
      4       O      1       6.000    3.573   3.573           -0.000     -1.146
      5       H      2       1.000    0.214   0.214            0.000      0.571
      6       H      2       1.000    0.203   0.203           -0.000      0.594

  Total Charge                                                            0.001
 !-----------------------------------------------------------------------------!

 ENERGY| Total FORCE_EVAL ( QS ) energy (a.u.):              -30.402201803217402


 --------  Informations at step =     1 ------------
  Optimization Method        =                 BFGS
  Total Energy               =       -30.4022018032
  Real energy change         =         2.6285300748
  Predicted change in energy =        -7.6503704114
  Scaling factor             =         0.0098526590
  Step size                  =         0.4724315332
  Trust radius               =         0.4724315332
  Decrease in energy         =                   NO
  Used time                  =                4.108

  Convergence check :
  Max. step size             =         0.4724315332
  Conv. limit for step size  =         0.0030000000
  Convergence in step size   =                   NO
  RMS step size              =         0.2012508989
  Conv. limit for RMS step   =         0.0015000000
  Convergence in RMS step    =                   NO
  Max. gradient              =        11.3803391100
  Conv. limit for gradients  =         0.0004500000
  Conv. for gradients        =                   NO
  RMS gradient               =         4.2535231897
  Conv. limit for RMS grad.  =         0.0003000000
  Conv. for gradients        =                   NO
 ---------------------------------------------------

 --------------------------
 OPTIMIZATION STEP:      2
 --------------------------

  Step is scaled; Scaling factor =  0.22877

 Spin 1

 Number of electrons:                                                          8
 Number of occupied orbitals:                                                  8
 Number of molecular orbitals:                                                 8

 Spin 2

 Number of electrons:                                                          8
 Number of occupied orbitals:                                                  8
 Number of molecular orbitals:                                                 8

 Number of orbital functions:                                                 46
 Number of independent orbital functions:                                     46

 Parameters for the always stable predictor-corrector (ASPC) method:

  ASPC order: 0

  B(1) =   2.000000
  B(2) =  -1.000000

 Parameters for the always stable predictor-corrector (ASPC) method:

  ASPC order: 0

  B(1) =   2.000000
  B(2) =  -1.000000

 Extrapolation method: ASPC


 SCF WAVEFUNCTION OPTIMIZATION

  ----------------------------------- OT ---------------------------------------
  Minimizer      : CG                  : conjugate gradient
  Preconditioner : FULL_ALL            : diagonalization, state selective
  Precond_solver : DEFAULT
  Line search    : 2PNT                : 2 energies, one gradient
  stepsize       :    0.15000000                  energy_gap     :    0.08000000
  eps_taylor     :   0.10000E-15                  max_taylor     :             4
  ----------------------------------- OT ---------------------------------------

  Step     Update method      Time    Convergence         Total energy    Change
  ------------------------------------------------------------------------------
     1 OT CG       0.15E+00    0.3     0.01876816       -34.3602608585 -3.44E+01
     2 OT LS       0.47E+00    0.2                      -34.3929302176
     3 OT CG       0.47E+00    0.3     0.00466713       -34.4210593228 -6.08E-02
     4 OT LS       0.19E+00    0.2                      -34.4193107504
     5 OT CG       0.19E+00    0.3     0.00084176       -34.4225898587 -1.53E-03
     6 OT LS       0.31E+00    0.2                      -34.4226587481
     7 OT CG       0.31E+00    0.3     0.00016295       -34.4226708464 -8.10E-05
     8 OT LS       0.37E+00    0.2                      -34.4226743429
     9 OT CG       0.37E+00    0.3     0.00004420       -34.4226744271 -3.58E-06
    10 OT LS       0.19E+00    0.2                      -34.4226744340
    11 OT CG       0.19E+00    0.3     0.00001206       -34.4226745605 -1.33E-07
    12 OT LS       0.32E+00    0.2                      -34.4226745746
    13 OT CG       0.32E+00    0.3     0.00000227       -34.4226745777 -1.73E-08

  *** SCF run converged in    13 steps ***


  Electronic density on regular grids:        -16.0000000665       -0.0000000665
  Core density on regular grids:               16.0000000000        0.0000000000
  Total charge density on r-space grids:       -0.0000000664
  Total charge density g-space grids:          -0.0000000664

  Overlap energy of the core charge distribution:               0.00000001586810
  Self energy of the core charge distribution:                -88.69430999347530
  Core Hamiltonian energy:                                     25.57431169728941
  Hartree energy:                                              37.08827990883582
  Exchange-correlation energy:                                 -8.38834975794003
  Dispersion energy:                                           -0.00260644830640

  Total energy:                                               -34.42267457772841

  outer SCF iter =    1 RMS gradient =   0.23E-05 energy =        -34.4226745777
  outer SCF loop converged in   1 iterations or   13 steps


  Integrated absolute spin density  :                               0.0000000000
  Ideal and single determinant S**2 :                    0.000000      -0.000000

 !-----------------------------------------------------------------------------!
                     Mulliken Population Analysis

 #  Atom  Element  Kind  Atomic population (alpha,beta) Net charge  Spin moment
       1     O        1         3.179048     3.179048    -0.358095    -0.000000
       2     H        2         0.429704     0.429704     0.140592    -0.000000
       3     H        2         0.409451     0.409451     0.181099    -0.000000
       4     O        1         3.171435     3.171435    -0.342870    -0.000000
       5     H        2         0.405716     0.405716     0.188568    -0.000000
       6     H        2         0.404647     0.404647     0.190706     0.000000
 # Total charge and spin        8.000000     8.000000    -0.000000    -0.000000

 !-----------------------------------------------------------------------------!

 !-----------------------------------------------------------------------------!
                           Hirshfeld Charges

  #Atom  Element  Kind  Ref Charge     Population       Spin moment  Net charge
      1       O      1       6.000    3.582   3.582           -0.000     -1.163
      2       H      2       1.000    0.220   0.220           -0.000      0.560
      3       H      2       1.000    0.196   0.196           -0.000      0.608
      4       O      1       6.000    3.587   3.587           -0.000     -1.175
      5       H      2       1.000    0.214   0.214           -0.000      0.572
      6       H      2       1.000    0.200   0.200            0.000      0.600

  Total Charge                                                            0.001
 !-----------------------------------------------------------------------------!

 ENERGY| Total FORCE_EVAL ( QS ) energy (a.u.):              -33.836595330270399


 --------  Informations at step =     2 ------------
  Optimization Method        =                 BFGS
  Total Energy               =       -33.8365953303
  Real energy change         =        -3.4343935271
  Predicted change in energy =        -1.9268136956
  Scaling factor             =         0.2287729886
  Step size                  =         0.4724315332
  Trust radius               =         0.4724315332
  Decrease in energy         =                  YES
  Used time                  =                4.519

  Convergence check :
  Max. step size             =         0.4724315332
  Conv. limit for step size  =         0.0030000000
  Convergence in step size   =                   NO
  RMS step size              =         0.2060390263
  Conv. limit for RMS step   =         0.0015000000
  Convergence in RMS step    =                   NO
  Max. gradient              =         4.6934272598
  Conv. limit for gradients  =         0.0004500000
  Conv. for gradients        =                   NO
  RMS gradient               =         1.6359390626
  Conv. limit for RMS grad.  =         0.0003000000
  Conv. for gradients        =                   NO
 ---------------------------------------------------

 --------------------------
 OPTIMIZATION STEP:      3
 --------------------------

  Step is scaled; Scaling factor =  0.00001

 Spin 1

 Number of electrons:                                                          8
 Number of occupied orbitals:                                                  8
 Number of molecular orbitals:                                                 8

 Spin 2

 Number of electrons:                                                          8
 Number of occupied orbitals:                                                  8
 Number of molecular orbitals:                                                 8

 Number of orbital functions:                                                 46
 Number of independent orbital functions:                                     46

 Parameters for the always stable predictor-corrector (ASPC) method:

  ASPC order: 1

  B(1) =   2.500000
  B(2) =  -2.000000
  B(3) =   0.500000

 Parameters for the always stable predictor-corrector (ASPC) method:

  ASPC order: 1

  B(1) =   2.500000
  B(2) =  -2.000000
  B(3) =   0.500000

 Extrapolation method: ASPC


 SCF WAVEFUNCTION OPTIMIZATION

  ----------------------------------- OT ---------------------------------------
  Minimizer      : CG                  : conjugate gradient
  Preconditioner : FULL_ALL            : diagonalization, state selective
  Precond_solver : DEFAULT
  Line search    : 2PNT                : 2 energies, one gradient
  stepsize       :    0.15000000                  energy_gap     :    0.08000000
  eps_taylor     :   0.10000E-15                  max_taylor     :             4
  ----------------------------------- OT ---------------------------------------

  Step     Update method      Time    Convergence         Total energy    Change
  ------------------------------------------------------------------------------
     1 OT CG       0.15E+00    0.2     0.02905965       -34.2396121665 -3.42E+01
     2 OT LS       0.35E+00    0.2                      -34.3129711357
     3 OT CG       0.35E+00    0.3     0.01379996       -34.3498545882 -1.10E-01
     4 OT LS       0.26E+00    0.2                      -34.3655246642
     5 OT CG       0.26E+00    0.3     0.00143675       -34.3681437236 -1.83E-02
     6 OT LS       0.33E+00    0.2                      -34.3683811157
     7 OT CG       0.33E+00    0.3     0.00040694       -34.3683937198 -2.50E-04
     8 OT LS       0.24E+00    0.2                      -34.3684062101
     9 OT CG       0.24E+00    0.3     0.00012953       -34.3684083103 -1.46E-05
    10 OT LS       0.34E+00    0.2                      -34.3684102322
    11 OT CG       0.34E+00    0.3     0.00002153       -34.3684104233 -2.11E-06
    12 OT LS       0.28E+00    0.2                      -34.3684104696
    13 OT CG       0.28E+00    0.3     0.00000797       -34.3684104717 -4.84E-08
    14 OT LS       0.29E+00    0.2                      -34.3684104784
    15 OT CG       0.29E+00    0.3     0.00000179       -34.3684104785 -6.76E-09

  *** SCF run converged in    15 steps ***


  Electronic density on regular grids:        -16.0000000642       -0.0000000642
  Core density on regular grids:               16.0000000000        0.0000000000
  Total charge density on r-space grids:       -0.0000000642
  Total charge density g-space grids:          -0.0000000642

  Overlap energy of the core charge distribution:               0.00001843326609
  Self energy of the core charge distribution:                -88.69430999347530
  Core Hamiltonian energy:                                     26.53375042826421
  Hartree energy:                                              36.44364163349617
  Exchange-correlation energy:                                 -8.64873599333246
  Dispersion energy:                                           -0.00277498666952

  Total energy:                                               -34.36841047845081

  outer SCF iter =    1 RMS gradient =   0.18E-05 energy =        -34.3684104785
  outer SCF loop converged in   1 iterations or   15 steps


  Integrated absolute spin density  :                               0.0000000000
  Ideal and single determinant S**2 :                    0.000000      -0.000000

 !-----------------------------------------------------------------------------!
                     Mulliken Population Analysis

 #  Atom  Element  Kind  Atomic population (alpha,beta) Net charge  Spin moment
       1     O        1         3.085414     3.085414    -0.170828     0.000000
       2     H        2         0.429711     0.429711     0.140578    -0.000000
       3     H        2         0.476283     0.476283     0.047433     0.000000
       4     O        1         3.101208     3.101208    -0.202416    -0.000000
       5     H        2         0.441371     0.441371     0.117258     0.000000
       6     H        2         0.466012     0.466012     0.067975    -0.000000
 # Total charge and spin        8.000000     8.000000    -0.000000    -0.000000

 !-----------------------------------------------------------------------------!

 !-----------------------------------------------------------------------------!
                           Hirshfeld Charges

  #Atom  Element  Kind  Ref Charge     Population       Spin moment  Net charge
      1       O      1       6.000    3.533   3.533            0.000     -1.066
      2       H      2       1.000    0.217   0.217           -0.000      0.566
      3       H      2       1.000    0.250   0.250            0.000      0.500
      4       O      1       6.000    3.561   3.561           -0.000     -1.121
      5       H      2       1.000    0.217   0.217            0.000      0.566
      6       H      2       1.000    0.222   0.222           -0.000      0.556

  Total Charge                                                            0.001
 !-----------------------------------------------------------------------------!

 ENERGY| Total FORCE_EVAL ( QS ) energy (a.u.):              -28.124335633896479


 --------  Informations at step =     3 ------------
  Optimization Method        =                 BFGS
  Total Energy               =       -28.1243356339
  Real energy change         =         5.7122596964
  Predicted change in energy =       -81.3771291511
  Scaling factor             =         0.0000146451
  Step size                  =         0.4724315332
  Trust radius               =         0.4724315332
  Decrease in energy         =                   NO
  Used time                  =                4.846

  Convergence check :
  Max. step size             =         0.4724315332
  Conv. limit for step size  =         0.0030000000
  Convergence in step size   =                   NO
  RMS step size              =         0.1977026673
  Conv. limit for RMS step   =         0.0015000000
  Convergence in RMS step    =                   NO
  Max. gradient              =        15.1693815215
  Conv. limit for gradients  =         0.0004500000
  Conv. for gradients        =                   NO
  RMS gradient               =         5.3450283221
  Conv. limit for RMS grad.  =         0.0003000000
  Conv. for gradients        =                   NO
 ---------------------------------------------------

 --------------------------
 OPTIMIZATION STEP:      4
 --------------------------

  Step is scaled; Scaling factor =  0.01923

 Spin 1

 Number of electrons:                                                          8
 Number of occupied orbitals:                                                  8
 Number of molecular orbitals:                                                 8

 Spin 2

 Number of electrons:                                                          8
 Number of occupied orbitals:                                                  8
 Number of molecular orbitals:                                                 8

 Number of orbital functions:                                                 46
 Number of independent orbital functions:                                     46

 Parameters for the always stable predictor-corrector (ASPC) method:

  ASPC order: 2

  B(1) =   2.800000
  B(2) =  -2.800000
  B(3) =   1.200000
  B(4) =  -0.200000

 Parameters for the always stable predictor-corrector (ASPC) method:

  ASPC order: 2

  B(1) =   2.800000
  B(2) =  -2.800000
  B(3) =   1.200000
  B(4) =  -0.200000

 Extrapolation method: ASPC


 SCF WAVEFUNCTION OPTIMIZATION

  ----------------------------------- OT ---------------------------------------
  Minimizer      : CG                  : conjugate gradient
  Preconditioner : FULL_ALL            : diagonalization, state selective
  Precond_solver : DEFAULT
  Line search    : 2PNT                : 2 energies, one gradient
  stepsize       :    0.15000000                  energy_gap     :    0.08000000
  eps_taylor     :   0.10000E-15                  max_taylor     :             4
  ----------------------------------- OT ---------------------------------------

  Step     Update method      Time    Convergence         Total energy    Change
  ------------------------------------------------------------------------------
     1 OT CG       0.15E+00    0.2     0.06070050       -33.8813785880 -3.39E+01
     2 OT LS       0.36E+00    0.2                      -34.2037416105
     3 OT CG       0.36E+00    0.3     0.03433907       -34.3396476448 -4.58E-01
     4 OT LS       0.19E+00    0.2                      -34.3565317597
     5 OT CG       0.19E+00    0.3     0.01145557       -34.4090455586 -6.94E-02
     6 OT LS       0.20E+00    0.2                      -34.4188894558
     7 OT CG       0.20E+00    0.3     0.00380681       -34.4189284341 -9.88E-03
     8 OT LS       0.25E+00    0.2                      -34.4202324800
     9 OT CG       0.25E+00    0.3     0.00074172       -34.4202787503 -1.35E-03
    10 OT LS       0.32E+00    0.2                      -34.4203400833
    11 OT CG       0.32E+00    0.3     0.00021452       -34.4203428853 -6.41E-05
    12 OT LS       0.20E+00    0.2                      -34.4203452413
    13 OT CG       0.20E+00    0.3     0.00008174       -34.4203463325 -3.45E-06
    14 OT LS       0.26E+00    0.2                      -34.4203469456
    15 OT CG       0.26E+00    0.3     0.00001850       -34.4203469784 -6.46E-07
    16 OT LS       0.27E+00    0.2                      -34.4203470122
    17 OT CG       0.27E+00    0.3     0.00000682       -34.4203470122 -3.38E-08
    18 OT LS       0.24E+00    0.2                      -34.4203470162
    19 OT CG       0.24E+00    0.3     0.00000210       -34.4203470162 -4.05E-09

  *** SCF run converged in    19 steps ***


  Electronic density on regular grids:        -16.0000000216       -0.0000000216
  Core density on regular grids:               16.0000000000        0.0000000000
  Total charge density on r-space grids:       -0.0000000215
  Total charge density g-space grids:          -0.0000000215

  Overlap energy of the core charge distribution:               0.00000003713560
  Self energy of the core charge distribution:                -88.69430999347530
  Core Hamiltonian energy:                                     25.67483122539784
  Hartree energy:                                              37.02069715476246
  Exchange-correlation energy:                                 -8.41883809957857
  Dispersion energy:                                           -0.00272734047326

  Total energy:                                               -34.42034701623123

  outer SCF iter =    1 RMS gradient =   0.21E-05 energy =        -34.4203470162
  outer SCF loop converged in   1 iterations or   19 steps


  Integrated absolute spin density  :                               0.0000000000
  Ideal and single determinant S**2 :                    0.000000       0.000000

 !-----------------------------------------------------------------------------!
                     Mulliken Population Analysis

 #  Atom  Element  Kind  Atomic population (alpha,beta) Net charge  Spin moment
       1     O        1         3.147080     3.147080    -0.294160     0.000000
       2     H        2         0.430478     0.430478     0.139044     0.000000
       3     H        2         0.403213     0.403213     0.193574     0.000000
       4     O        1         3.171681     3.171681    -0.343362    -0.000000
       5     H        2         0.411384     0.411384     0.177233    -0.000000
       6     H        2         0.436165     0.436165     0.127671     0.000000
 # Total charge and spin        8.000000     8.000000     0.000000     0.000000

 !-----------------------------------------------------------------------------!

 !-----------------------------------------------------------------------------!
                           Hirshfeld Charges

  #Atom  Element  Kind  Ref Charge     Population       Spin moment  Net charge
      1       O      1       6.000    3.561   3.561            0.000     -1.123
      2       H      2       1.000    0.221   0.221            0.000      0.557
      3       H      2       1.000    0.210   0.210            0.000      0.579
      4       O      1       6.000    3.587   3.587           -0.000     -1.174
      5       H      2       1.000    0.212   0.212           -0.000      0.577
      6       H      2       1.000    0.208   0.208           -0.000      0.585

  Total Charge                                                            0.001
 !-----------------------------------------------------------------------------!

 ENERGY| Total FORCE_EVAL ( QS ) energy (a.u.):              -26.251603861863156


 --------  Informations at step =     4 ------------
  Optimization Method        =                 BFGS
  Total Energy               =       -26.2516038619
  Real energy change         =         1.8727317720
  Predicted change in energy =        -0.9680774596
  Scaling factor             =         0.0192285364
  Step size                  =         0.4724315332
  Trust radius               =         0.4724315332
  Decrease in energy         =                   NO
  Used time                  =                5.738

  Convergence check :
  Max. step size             =         0.4724315332
  Conv. limit for step size  =         0.0030000000
  Convergence in step size   =                   NO
  RMS step size              =         0.2058322098
  Conv. limit for RMS step   =         0.0015000000
  Convergence in RMS step    =                   NO
  Max. gradient              =        17.1224883779
  Conv. limit for gradients  =         0.0004500000
  Conv. for gradients        =                   NO
  RMS gradient               =         6.0274627268
  Conv. limit for RMS grad.  =         0.0003000000
  Conv. for gradients        =                   NO
 ---------------------------------------------------

 --------------------------
 OPTIMIZATION STEP:      5
 --------------------------

[...]

 Parameters for the always stable predictor-corrector (ASPC) method:

  ASPC order: 3

  B(1) =   3.000000
  B(2) =  -3.428571
  B(3) =   1.928571
  B(4) =  -0.571429
  B(5) =   0.071429

 Parameters for the always stable predictor-corrector (ASPC) method:

  ASPC order: 3

  B(1) =   3.000000
  B(2) =  -3.428571
  B(3) =   1.928571
  B(4) =  -0.571429
  B(5) =   0.071429

 Extrapolation method: ASPC


 SCF WAVEFUNCTION OPTIMIZATION

  ----------------------------------- OT ---------------------------------------
  Minimizer      : CG                  : conjugate gradient
  Preconditioner : FULL_ALL            : diagonalization, state selective
  Precond_solver : DEFAULT
  Line search    : 2PNT                : 2 energies, one gradient
  stepsize       :    0.15000000                  energy_gap     :    0.08000000
  eps_taylor     :   0.10000E-15                  max_taylor     :             4
  ----------------------------------- OT ---------------------------------------

  Step     Update method      Time    Convergence         Total energy    Change
  ------------------------------------------------------------------------------
     1 OT CG       0.15E+00    0.3     0.00004845       -34.4585518005 -3.45E+01
     2 OT LS       0.49E+00    0.2                      -34.4585520197
     3 OT CG       0.49E+00    0.4     0.00000627       -34.4585522217 -4.21E-07
     4 OT LS       0.21E+00    0.2                      -34.4585522196
     5 OT CG       0.21E+00    0.4     0.00000193       -34.4585522248 -3.06E-09

  *** SCF run converged in     5 steps ***


  Electronic density on regular grids:        -15.9999997840        0.0000002160
  Core density on regular grids:               16.0000000000        0.0000000000
  Total charge density on r-space grids:        0.0000002160
  Total charge density g-space grids:           0.0000002160

  Overlap energy of the core charge distribution:               0.00000006516260
  Self energy of the core charge distribution:                -88.69430999347530
  Core Hamiltonian energy:                                     25.86878036456793
  Hartree energy:                                              36.84984758704481
  Exchange-correlation energy:                                 -8.48023762527054
  Dispersion energy:                                           -0.00263262282559

  Total energy:                                               -34.45855222479609

  outer SCF iter =    1 RMS gradient =   0.19E-05 energy =        -34.4585522248
  outer SCF loop converged in   1 iterations or    5 steps


  Integrated absolute spin density  :                               0.0000000000
  Ideal and single determinant S**2 :                    0.000000       0.000000

 !-----------------------------------------------------------------------------!
                     Mulliken Population Analysis

 #  Atom  Element  Kind  Atomic population (alpha,beta) Net charge  Spin moment
       1     O        1         3.148145     3.148145    -0.296291    -0.000000
       2     H        2         0.433914     0.433914     0.132172    -0.000000
       3     H        2         0.428254     0.428254     0.143493    -0.000000
       4     O        1         3.135220     3.135220    -0.270439    -0.000000
       5     H        2         0.429870     0.429870     0.140260    -0.000000
       6     H        2         0.424597     0.424597     0.150806     0.000000
 # Total charge and spin        8.000000     8.000000     0.000000    -0.000000

 !-----------------------------------------------------------------------------!

 !-----------------------------------------------------------------------------!
                           Hirshfeld Charges

  #Atom  Element  Kind  Ref Charge     Population       Spin moment  Net charge
      1       O      1       6.000    3.578   3.578           -0.000     -1.157
      2       H      2       1.000    0.219   0.219           -0.000      0.561
      3       H      2       1.000    0.204   0.204           -0.000      0.592
      4       O      1       6.000    3.574   3.574           -0.000     -1.148
      5       H      2       1.000    0.218   0.218           -0.000      0.564
      6       H      2       1.000    0.206   0.206            0.000      0.589

  Total Charge                                                            0.001
 !-----------------------------------------------------------------------------!

 ENERGY| Total FORCE_EVAL ( QS ) energy (a.u.):              -34.458551771466297


 -------------------------------------------------------------------------------
 -                                                                             -
 -                                DBCSR STATISTICS                             -
 -                                                                             -
 -------------------------------------------------------------------------------
 COUNTER                                    TOTAL       BLAS       SMM       ACC
 flops     5 x     8 x     8              3223040     100.0%      0.0%      0.0%
 flops    10 x     8 x     5              5555200     100.0%      0.0%      0.0%
 flops     5 x     5 x     8              6416000     100.0%      0.0%      0.0%
 flops    10 x     8 x     8              6446080     100.0%      0.0%      0.0%
 flops     5 x    13 x     8              6672640     100.0%      0.0%      0.0%
 flops    13 x     5 x     8              6672640     100.0%      0.0%      0.0%
 flops    10 x     8 x    13              7221760     100.0%      0.0%      0.0%
 flops     8 x     8 x     8              7282688     100.0%      0.0%      0.0%
 flops     8 x     8 x     5              9446400     100.0%      0.0%      0.0%
 flops     8 x     8 x    13             12280320     100.0%      0.0%      0.0%
 flops    13 x    13 x     8             13011648     100.0%      0.0%      0.0%
 flops    31 x     8 x     5             17221120     100.0%      0.0%      0.0%
 flops    31 x     8 x     8             19982848     100.0%      0.0%      0.0%
 flops    31 x     8 x    13             22387456     100.0%      0.0%      0.0%
 flops     5 x     8 x     5             25516800     100.0%      0.0%      0.0%
 flops    13 x     8 x     5             29560960     100.0%      0.0%      0.0%
 flops     5 x     8 x    13             33171840     100.0%      0.0%      0.0%
 flops    13 x     8 x    13             38429248     100.0%      0.0%      0.0%
 flops inhomo. stacks                           0       0.0%      0.0%      0.0%
 flops total                       270.498688E+06     100.0%      0.0%      0.0%
 flops max/rank                    184.345888E+06     100.0%      0.0%      0.0%
 matmuls inhomo. stacks                         0       0.0%      0.0%      0.0%
 matmuls total                             237200     100.0%      0.0%      0.0%
 number of processed stacks                186544     100.0%      0.0%      0.0%
 average stack size                                     1.3       0.0       0.0
 marketing flops                   292.776576E+06
 -------------------------------------------------------------------------------
 # multiplications                          22861
 max memory usage/rank             225.443840E+06
 # max total images/rank                        5
 # max 3D layers                                1
 # MPI messages exchanged                57609720
 MPI messages size (bytes):
  total size                         1.448651E+09
  min size                           0.000000E+00
  max size                           3.224000E+03
  average size                      25.145941E+00
 MPI breakdown and total messages size (bytes):
             size <=      128            55643976                        0
       128 < size <=     8192             1965744               1448650656
      8192 < size <=    32768                   0                        0
     32768 < size <=   131072                   0                        0
    131072 < size <=  4194304                   0                        0
   4194304 < size <= 16777216                   0                        0
  16777216 < size                               0                        0
 -------------------------------------------------------------------------------

 *** WARNING in dbcsr/mm/dbcsr_mm.F:268 :: Using a non-square number of ***
 *** MPI ranks might lead to poor performance.                          ***
 *** Used ranks: 40                                                     ***
 *** Suggested: 36 81                                                   ***

 -------------------------------------------------------------------------------
 
 MEMORY| Estimated peak process memory [MiB]                                 215

 -------------------------------------------------------------------------------
 ----                             MULTIGRID INFO                            ----
 -------------------------------------------------------------------------------
 count for grid        1:         329727          cutoff [a.u.]          150.00
 count for grid        2:         158509          cutoff [a.u.]           50.00
 count for grid        3:         188623          cutoff [a.u.]           16.67
 count for grid        4:         112368          cutoff [a.u.]            5.56
 count for grid        5:            600          cutoff [a.u.]            1.85
 total gridlevel count  :         789827

 -------------------------------------------------------------------------------
 -                                                                             -
 -                         MESSAGE PASSING PERFORMANCE                         -
 -                                                                             -
 -------------------------------------------------------------------------------

 ROUTINE             CALLS      AVE VOLUME [Bytes]
 MP_Group             2619
 MP_Bcast            10984                  14487.
 MP_Allreduce       148331                     15.
 MP_Sync             10191
 MP_Alltoall        128907                  26235.
 MP_SendRecv          9984                    242.
 MP_ISendRecv       469326                  12198.
 MP_Wait           2673350
 MP_comm_split         818
 MP_ISend          3045060                    112.
 MP_IRecv          3031422                     93.
 MP_Recv               504                    288.
 MP_Memory         2887182
 -------------------------------------------------------------------------------


 -------------------------------------------------------------------------------
 -                                                                             -
 -                           R E F E R E N C E S                               -
 -                                                                             -
 -------------------------------------------------------------------------------
 
 CP2K version 7.0 (Development Version), the CP2K developers group (2018).
 CP2K is freely available from https://www.cp2k.org/ .

 Schuett, Ole; Messmer, Peter; Hutter, Juerg; VandeVondele, Joost. 
 Electronic Structure Calculations on Graphics Processing Units, John Wiley & Sons, Ltd, 173-190 (2016). 
 GPU-Accelerated Sparse Matrix-Matrix Multiplication for Linear Scaling Density Functional Theory.
 http://dx.doi.org/10.1002/9781118670712.ch8


 Borstnik, U; VandeVondele, J; Weber, V; Hutter, J. 
 PARALLEL COMPUTING, 40 (5-6), 47-58 (2014). 
 Sparse matrix multiplication: The distributed block-compressed sparse
 row library.
 http://dx.doi.org/10.1016/j.parco.2014.03.012


 Hutter, J; Iannuzzi, M; Schiffmann, F; VandeVondele, J. 
 WILEY INTERDISCIPLINARY REVIEWS-COMPUTATIONAL MOLECULAR SCIENCE, 4 (1), 15-25 (2014). 
 CP2K: atomistic simulations of condensed matter systems.
 http://dx.doi.org/10.1002/wcms.1159


 Grimme, S; Ehrlich, S; Goerigk, L. 
 JOURNAL OF COMPUTATIONAL CHEMISTRY, 32, 1456 (2011). 
 Effect of the damping function in dispersion corrected density functional theory.
 http://dx.doi.org/10.1002/jcc.21759


 Grimme, S; Antony, J; Ehrlich, S; Krieg, H. 
 JOURNAL OF CHEMICAL PHYSICS, 132 (15), 154104 (2010). 
 A consistent and accurate ab initio parametrization of density
 functional dispersion correction (DFT-D) for the 94 elements H-Pu.
 http://dx.doi.org/10.1063/1.3382344


 VandeVondele, J; Hutter, J. 
 JOURNAL OF CHEMICAL PHYSICS, 127 (11), 114105 (2007). 
 Gaussian basis sets for accurate calculations on molecular systems in
 gas and condensed phases.
 http://dx.doi.org/10.1063/1.2770708


 Krack, M. 
 THEORETICAL CHEMISTRY ACCOUNTS, 114 (1-3), 145-152 (2005). 
 Pseudopotentials for H to Kr optimized for gradient-corrected
 exchange-correlation functionals.
 http://dx.doi.org/10.1007/s00214-005-0655-y


 VandeVondele, J; Krack, M; Mohamed, F; Parrinello, M; Chassaing, T;
 Hutter, J. COMPUTER PHYSICS COMMUNICATIONS, 167 (2), 103-128 (2005). 
 QUICKSTEP: Fast and accurate density functional calculations using a
 mixed Gaussian and plane waves approach.
 http://dx.doi.org/10.1016/j.cpc.2004.12.014


 Frigo, M; Johnson, SG. 
 PROCEEDINGS OF THE IEEE, 93 (2), 216-231 (2005). 
 The design and implementation of FFTW3.
 http://dx.doi.org/10.1109/JPROC.2004.840301


 Kolafa, J. 
 JOURNAL OF COMPUTATIONAL CHEMISTRY, 25 (3), 335-342 (2004). 
 Time-reversible always stable predictor-corrector method for molecular dynamics of polarizable molecules.
 http://dx.doi.org/10.1002/jcc.10385


 VandeVondele, J; Hutter, J. 
 JOURNAL OF CHEMICAL PHYSICS, 118 (10), 4365-4369 (2003). 
 An efficient orbital transformation method for electronic structure
 calculations.
 http://dx.doi.org/10.1063/1.1543154


 Hartwigsen, C; Goedecker, S; Hutter, J. 
 PHYSICAL REVIEW B, 58 (7), 3641-3662 (1998). 
 Relativistic separable dual-space Gaussian pseudopotentials from H to Rn.
 http://dx.doi.org/10.1103/PhysRevB.58.3641


 Lippert, G; Hutter, J; Parrinello, M. 
 MOLECULAR PHYSICS, 92 (3), 477-487 (1997). 
 A hybrid Gaussian and plane wave density functional scheme.
 http://dx.doi.org/10.1080/002689797170220


 Perdew, JP; Burke, K; Ernzerhof, M. 
 PHYSICAL REVIEW LETTERS, 77 (18), 3865-3868 (1996). 
 Generalized gradient approximation made simple.
 http://dx.doi.org/10.1103/PhysRevLett.77.3865


 Goedecker, S; Teter, M; Hutter, J. 
 PHYSICAL REVIEW B, 54 (3), 1703-1710 (1996). 
 Separable dual-space Gaussian pseudopotentials.
 http://dx.doi.org/10.1103/PhysRevB.54.1703


 -------------------------------------------------------------------------------
 -                                                                             -
 -                                T I M I N G                                  -
 -                                                                             -
 -------------------------------------------------------------------------------
 SUBROUTINE                       CALLS  ASD         SELF TIME        TOTAL TIME
                                MAXIMUM       AVERAGE  MAXIMUM  AVERAGE  MAXIMUM
 CP2K                                 1  1.0    0.009    0.014  254.289  254.290
 cp_geo_opt                           1  2.0    0.000    0.011  254.105  254.115
 geoopt_bfgs                          1  3.0    0.008    0.012  254.105  254.110
 cp_eval_at                          65  4.0    0.007    0.010  229.156  229.163
 qs_forces                           64  5.0    0.005    0.005  226.792  226.792
 qs_energies                         65  6.0    0.004    0.009  212.650  212.669
 scf_env_do_scf                      65  7.0    0.003    0.008  186.740  186.740
 scf_env_do_scf_inner_loop          673  8.0    0.024    0.044  177.210  177.211
 rs_pw_transfer                   12034 12.9    0.047    0.053  118.433  137.059
 mp_waitall_1                   2673350 16.7  117.545  136.929  117.545  136.929
 qs_rho_update_rho                  738  9.1    0.005    0.006  130.576  130.601
 calculate_rho_elec                1476 10.1   18.488  116.376  130.571  130.597
 density_rs2pw                     1476 11.1    0.045    0.048  111.295  129.801
 rs_pw_transfer_RS2PW_150          1606 12.9    1.012    1.097  108.001  126.659
 dbcsr_multiply_generic           22861 13.7    0.786    0.849   47.191   49.742
 rebuild_ks_matrix                  737  9.7    0.002    0.002   44.872   44.897
 qs_ks_build_kohn_sham_matrix       737 10.7    0.058    0.078   44.870   44.895
 sum_up_and_integrate               433 11.5    0.036    0.047   24.858   36.880
 integrate_v_rspace                 866 12.5    4.518   28.560   24.821   36.846
 qs_scf_new_mos                     673  9.0    0.003    0.004   33.083   33.132
 qs_scf_loop_do_ot                  673 10.0    0.005    0.021   33.079   33.129
 ot_scf_mini                        673 11.0    0.027    0.041   30.803   30.824
 qs_ks_update_qs_env                738  9.0    0.006    0.006   30.443   30.462
 pw_transfer                      23044 13.3    1.117    1.185   20.337   22.719
 potential_pw2rs                    866 13.5    0.028    0.041   20.240   22.516
 fft_wrap_pw1pw2                  21570 14.3    0.064    0.077   19.203   21.613
 mp_sum_dm                         2624  6.1   20.826   21.366   20.826   21.366
 virial_evaluate                     63  4.0    0.000    0.000   20.752   21.286
 fft3d_ps                         21570 16.3    1.221    1.581   18.487   20.935
 fft_wrap_pw1pw2_150              12202 15.6    0.297    0.381   17.782   20.177
 mp_alltoall_z22v                 21570 18.3   15.942   18.633   15.942   18.633
 mp_sum_l                        107230 14.8   15.710   18.320   15.710   18.320
 multiply_cannon                  22861 14.7    4.136    4.424   17.435   18.299
 write_restart                       64  4.0    0.457   18.112    0.462   18.118
 ot_mini                            673 12.0    0.003    0.004   17.464   17.472
 yz_to_x                           5005 17.2    0.099    0.146   14.312   16.846
 qs_ot_get_derivative               738 13.0    0.004    0.005   14.812   14.840
 qs_ks_update_qs_env_forces          64  6.0    0.000    0.000   14.501   14.518
 init_scf_run                        65  7.0    0.002    0.024   13.760   13.761
 scf_env_initial_rho_setup           65  8.0    0.001    0.002   13.758   13.759
 wfi_extrapolate                     65  9.0    0.006    0.030   13.497   13.498
 make_m2s                         45722 14.7    0.819    0.864   11.162   11.426
 mp_sum_d                         19246 13.9    9.752   11.316    9.752   11.316
 qs_energies_init_hamiltonians       65  7.0    0.001    0.001    9.754    9.772
 init_scf_loop                       65  8.0    0.002    0.002    9.410    9.411
 calculate_dispersion_pairpot        65  8.0    0.990    7.575    8.059    8.069
 qs_ot_get_derivative_taylor        562 14.0    0.012    0.015    8.015    8.066
 make_images                      45722 15.7    0.979    1.070    7.655    7.812
 qs_ot_get_p                       1476 11.8    0.006    0.006    7.705    7.772
 rs_pw_transfer_PW2RS_150          1060 14.8    0.824    0.887    6.705    6.758
 qs_vxc_create                      737 11.7    0.008    0.009    5.634    5.655
 -------------------------------------------------------------------------------

 The number of warnings for this run is : 1
 
 -------------------------------------------------------------------------------
  **** **** ******  **  PROGRAM ENDED AT                 2019-07-08 13:57:00.735
 ***** ** ***  *** **   PROGRAM RAN ON            blg9147.int.ets1.calculquebec.
 **    ****   ******    PROGRAM RAN BY                                       rzk
 ***** **    ** ** **   PROGRAM PROCESS ID                                131147
  **** **  *******  **  PROGRAM STOPPED IN /lustre04/scratch/rzk/rzk/GaN-carbene
                                           /443-adatoms-both-2x2/09-BondBreaking
                                           -CH/02-0401-CH-to-NTop-PES/PRACTICE
