       6
 i =        1, E =       -34.4138889160
  O        -1.2297717288       -0.1302849379        0.0237070380
  H        -1.6502839215        0.7534977155       -0.0521899988
  H        -0.5266001760       -0.1159346728       -0.6600938603
  O         1.2298122675        0.1303142324       -0.0236416900
  H         0.5257584568        0.1154268124        0.6592285261
  H         1.6506934344       -0.7533266647        0.0519563683
       6
 i =        2, E =       -34.4170481683
  O        -1.2486593664       -0.1546214167       -0.0239013600
  H        -1.6625649264        0.7111867362       -0.0583000785
  H        -0.5606832267       -0.1203825079       -0.6807748162
  O         1.2489261728        0.1547306031        0.0235876779
  H         0.5596954319        0.1196374914        0.6800076202
  H         1.6628798697       -0.7108649331        0.0583238407
       6
 i =        3, E =       -34.4213435199
  O        -1.2692273211       -0.2019563362       -0.0972889308
  H        -1.6944395863        0.6554443947       -0.0644387929
  H        -0.5820613235       -0.1284369353       -0.7337391753
  O         1.2696540580        0.2020752207        0.0971126855
  H         0.5809476693        0.1278301467        0.7326726529
  H         1.6948152700       -0.6551760259        0.0645313298
       6
 i =        4, E =       -34.4301355948
  O        -1.3404207061       -0.3636825024       -0.3468151365
  H        -1.8014286200        0.4667062896       -0.0853450605
  H        -0.6535991696       -0.1542438221       -0.9130053068
  O         1.3413984353        0.3638130879        0.3471126855
  H         0.6520611073        0.1541077169        0.9109284615
  H         1.8019974199       -0.4666448525        0.0856738104
       6
 i =        5, E =       -34.4337673513
  O        -1.3472222044       -0.4439919892       -0.4224996559
  H        -1.8136303586        0.3568826711       -0.1167824298
  H        -0.6890147219       -0.1352327904       -1.0010180844
  O         1.3493445528        0.4449081360        0.4240054197
  H         0.6872027581        0.1359702466        0.9973101998
  H         1.8144755954       -0.3567420760        0.1168767719
       6
 i =        6, E =       -34.4357870019
  O        -1.3116595654       -0.4801477905       -0.4221294336
  H        -1.7654362297        0.3049063276       -0.1210569060
  H        -0.7044899259       -0.0917808941       -1.0587882602
  O         1.3166791806        0.4838635309        0.4250555607
  H         0.7016935604        0.0916115289        1.0520373931
  H         1.7658411374       -0.3031464447        0.1222414874
       6
 i =        7, E =       -34.4367851953
  O        -1.2921760447       -0.5283955886       -0.4979940444
  H        -1.7458682968        0.2508777213       -0.0878211112
  H        -0.7038343130       -0.0771861025       -1.1398233117
  O         1.2987402986        0.5332592884        0.5029954032
  H         0.6992630346        0.0782527281        1.1311151680
  H         1.7474539040       -0.2482197125        0.0885197884
       6
 i =        8, E =       -34.4389060395
  O        -1.2822054350       -0.4672489100       -0.4494970535
  H        -1.7059222268        0.3351605149       -0.0663258546
  H        -0.6630548519       -0.1111007885       -1.0782420644
  O         1.2865928064        0.4696596498        0.4549667658
  H         0.6577602823        0.1139777534        1.0717506104
  H         1.7094310143       -0.3328078193        0.0669666042
       6
 i =        9, E =       -34.4394206216
  O        -1.2930411245       -0.4876358007       -0.4827470932
  H        -1.6835021416        0.3152645227       -0.0690773030
  H        -0.6763144740       -0.1121441929       -1.1052364355
  O         1.2962537155        0.4891547764        0.4836455721
  H         0.6705385081        0.1121122808        1.0971700170
  H         1.6863274977       -0.3116848316        0.0733892734
       6
 i =       10, E =       -34.4401550997
  O        -1.2851686046       -0.4808670222       -0.4753310040
  H        -1.6444860895        0.3190677339       -0.0566917870
  H        -0.6774271912       -0.1041082801       -1.1183665321
  O         1.2857318967        0.4816673464        0.4782262755
  H         0.6668409620        0.1041024982        1.1102184228
  H         1.6495434735       -0.3161070217        0.0558411668
       6
 i =       11, E =       -34.4406452156
  O        -1.2897334840       -0.4560532023       -0.4721540502
  H        -1.6047212036        0.3491227462       -0.0176001047
  H        -0.6729950096       -0.1091087332       -1.1197865398
  O         1.2859298272        0.4566385447        0.4667772442
  H         0.6607177127        0.1050914897        1.1078393116
  H         1.6073749274       -0.3434339095        0.0216697796
       6
 i =       12, E =       -34.4407483841
  O        -1.2963630564       -0.4599474276       -0.4669643043
  H        -1.5875320545        0.3417544089       -0.0018558863
  H        -0.6833497236       -0.1120021956       -1.1251357275
  O         1.2990551238        0.4618834390        0.4823207942
  H         0.6643852186        0.1132492700        1.1143687391
  H         1.5940090172       -0.3428954881       -0.0096316165
       6
 i =       13, E =       -34.4409833539
  O        -1.3031778720       -0.4748681582       -0.4733398205
  H        -1.5951892106        0.3266329168        0.0111934398
  H        -0.6881487020       -0.1163320891       -1.1289911196
  O         1.3030568435        0.4730753461        0.4732285036
  H         0.6737106142        0.1151283981        1.1125575128
  H         1.6001445599       -0.3238435231       -0.0053669647
       6
 i =       14, E =       -34.4410621755
  O        -1.3020211609       -0.4677213472       -0.4654511388
  H        -1.6001429822        0.3299584752        0.0078796692
  H        -0.6837684640       -0.1198994899       -1.1198808578
  O         1.3028963545        0.4693899982        0.4661960278
  H         0.6688398612        0.1147881366        1.1047863782
  H         1.6039837973       -0.3266525947       -0.0073766145
       6
 i =       15, E =       -34.4411063817
  O        -1.2986140765       -0.4676742517       -0.4661828033
  H        -1.5919214298        0.3294202751        0.0129655652
  H        -0.6757149003       -0.1206955675       -1.1183692692
  O         1.2969058866        0.4660609845        0.4665613352
  H         0.6592924850        0.1182092256        1.1034390668
  H         1.5976420561       -0.3278297225       -0.0156897883
       6
 i =       16, E =       -34.4411480769
  O        -1.2984225681       -0.4684678460       -0.4673980709
  H        -1.5893203972        0.3269584931        0.0177157021
  H        -0.6703226005       -0.1237310097       -1.1144787447
  O         1.2991985483        0.4686571581        0.4674743099
  H         0.6548590542        0.1208514723        1.0973205752
  H         1.5943035511       -0.3248094566       -0.0202805631
       6
 i =       17, E =       -34.4412385988
  O        -1.3019480470       -0.4732829778       -0.4677770707
  H        -1.5849218775        0.3173493057        0.0295711554
  H        -0.6490671031       -0.1298093656       -1.0906454692
  O         1.3026872106        0.4714607920        0.4654697544
  H         0.6334824720        0.1311664430        1.0683236112
  H         1.5904178697       -0.3157974389       -0.0332550996
       6
 i =       18, E =       -34.4412957921
  O        -1.2976662276       -0.4734868483       -0.4679036496
  H        -1.5832965404        0.3085896855        0.0380154819
  H        -0.6216566408       -0.1342683154       -1.0659259760
  O         1.3017063763        0.4766086714        0.4663369122
  H         0.6048890491        0.1325566609        1.0396965423
  H         1.5861341599       -0.3044317184       -0.0434142187
       6
 i =       19, E =       -34.4413362870
  O        -1.2985799911       -0.4718785929       -0.4682058051
  H        -1.5855939695        0.3089148096        0.0380605022
  H        -0.6121579977       -0.1299358775       -1.0536510541
  O         1.3007730167        0.4738579103        0.4677884179
  H         0.5937587577        0.1299181069        1.0279737329
  H         1.5889730736       -0.3041083669       -0.0432275620
       6
 i =       20, E =       -34.4413843467
  O        -1.2983228302       -0.4666050801       -0.4667623679
  H        -1.5953035354        0.3133856503        0.0365436273
  H        -0.5968643168       -0.1159475543       -1.0316396636
  O         1.2977069495        0.4663220326        0.4687271058
  H         0.5758208295        0.1177361800        1.0072435661
  H         1.5986993509       -0.3077933101       -0.0400492241
       6
 i =       21, E =       -34.4413952805
  O        -1.2982163607       -0.4673663160       -0.4669415360
  H        -1.6008374016        0.3130683233        0.0331691029
  H        -0.5990804970       -0.1126194585       -1.0323633826
  O         1.2971946579        0.4675892079        0.4682661150
  H         0.5780245657        0.1140210925        1.0078875058
  H         1.6034340522       -0.3073731692       -0.0376853897
       6
 i =       22, E =       -34.4413991668
  O        -1.2976150131       -0.4669975300       -0.4665673844
  H        -1.6045954448        0.3132675833        0.0325968718
  H        -0.6000231758       -0.1099029920       -1.0328568633
  O         1.2981270956        0.4676214692        0.4672582763
  H         0.5794130703        0.1105243405        1.0066036686
  H         1.6060034598       -0.3082627070       -0.0378359463
       6
 i =       23, E =       -34.4413999224
  O        -1.2979088816       -0.4671302874       -0.4671252433
  H        -1.6048205488        0.3132040650        0.0320163708
  H        -0.6012286816       -0.1098676146       -1.0345875930
  O         1.2981226209        0.4674241449        0.4671873611
  H         0.5803859395        0.1103059892        1.0078691587
  H         1.6059117874       -0.3086414971       -0.0380489932
       6
 i =       24, E =       -34.4414010173
  O        -1.2979453690       -0.4674286003       -0.4675502433
  H        -1.6050485087        0.3126929062        0.0314751772
  H        -0.6019834243       -0.1101520180       -1.0364360638
  O         1.2982830928        0.4671039666        0.4671562307
  H         0.5804597123        0.1104138117        1.0083327209
  H         1.6053520799       -0.3090325171       -0.0385717589
       6
 i =       25, E =       -34.4414028116
  O        -1.2980389437       -0.4675447204       -0.4678808625
  H        -1.6054637643        0.3128658159        0.0300080008
  H        -0.6037353077       -0.1108165245       -1.0395751283
  O         1.2983250077        0.4665699920        0.4670133953
  H         0.5803421809        0.1109241335        1.0089952304
  H         1.6040521217       -0.3101547294       -0.0385876383
       6
 i =       26, E =       -34.4414073444
  O        -1.2981663586       -0.4679159598       -0.4683598412
  H        -1.6068486645        0.3135974680        0.0261858869
  H        -0.6063292520       -0.1126087229       -1.0448360656
  O         1.2982275908        0.4658624187        0.4669133999
  H         0.5772300621        0.1131350738        1.0076905136
  H         1.6009538656       -0.3122910709       -0.0381649642
       6
 i =       27, E =       -34.4414205499
  O        -1.2982242094       -0.4685166914       -0.4690064722
  H        -1.6121236715        0.3176184787        0.0133001219
  H        -0.6138735446       -0.1177872733       -1.0588929744
  O         1.2981227233        0.4642153708        0.4668019147
  H         0.5674148050        0.1213312096        1.0024507214
  H         1.5933493816       -0.3190008692       -0.0343329638
       6
 i =       28, E =       -34.4414541738
  O        -1.2984769982       -0.4699836911       -0.4707444488
  H        -1.6319821581        0.3333576057       -0.0330784078
  H        -0.6354346932       -0.1365631996       -1.1005434729
  O         1.2976156390        0.4603180068        0.4665266591
  H         0.5270871871        0.1540225597        0.9767342357
  H         1.5685607021       -0.3408169923       -0.0194629093
       6
 i =       29, E =       -34.4415090134
  O        -1.2980112304       -0.4697417380       -0.4709203202
  H        -1.6464565578        0.3448516480       -0.0650097780
  H        -0.6478567734       -0.1477158386       -1.1220392404
  O         1.2974432057        0.4588751565        0.4669626687
  H         0.5084765167        0.1753202823        0.9646858437
  H         1.5590819581       -0.3541129469       -0.0034388982
       6
 i =       30, E =       -34.4381625062
  O        -1.2946106832       -0.4641735463       -0.4703128630
  H        -1.7618538132        0.4345070304       -0.3150097780
  H        -0.7223243829       -0.2378530244       -1.2546680360
  O         1.2956380480        0.4528722454        0.4708103840
  H         0.3631622943        0.3472973608        0.8609075509
  H         1.4974675745       -0.4506571040        0.1305497305
       6
 i =       31, E =       -34.4416490548
  O        -1.2961819222       -0.4664373849       -0.4682181376
  H        -1.6586389684        0.3599131536       -0.0945768103
  H        -0.6561653816       -0.1550561331       -1.1271481108
  O         1.2973549583        0.4621060603        0.4695149837
  H         0.5149249712        0.1954745528        0.9703127974
  H         1.5667758104       -0.3617500618        0.0281378287
       6
 i =       32, E =       -34.4416707753
  O        -1.2993945992       -0.4670910200       -0.4700426695
  H        -1.6550308440        0.3560380407       -0.0925424666
  H        -0.6315170623       -0.1692095179       -1.1053912896
  O         1.2970665535        0.4648417331        0.4679102545
  H         0.4688487429        0.2137026486        0.9258452954
  H         1.5504204435       -0.3568906296        0.0132596263
       6
 i =       33, E =       -34.4418669754
  O        -1.2985533864       -0.4661854178       -0.4672024985
  H        -1.6641912195        0.3671603083       -0.1168356139
  H        -0.6449889972       -0.1767714414       -1.1204215162
  O         1.2981166384        0.4664509068        0.4673329743
  H         0.4770999219        0.2324293775        0.9318644718
  H         1.5494311885       -0.3680875753        0.0340609396
       6
 i =       34, E =       -34.4422144507
  O        -1.2960381495       -0.4627102300       -0.4622626770
  H        -1.7025441222        0.4005444826       -0.2083143519
  H        -0.6577271774       -0.2123485133       -1.1460890152
  O         1.2997092737        0.4695699015        0.4678280267
  H         0.4440831704        0.3108320955        0.8948635697
  H         1.5351773777       -0.4047381883        0.1006453517
       6
 i =       35, E =       -34.4421684868
  O        -1.2958445007       -0.4623809068       -0.4617672989
  H        -1.7264688065        0.4231879287       -0.2910512996
  H        -0.6580667428       -0.2604282260       -1.1685583120
  O         1.3023946865        0.4739193336        0.4706471179
  H         0.3947479733        0.4036161493        0.8436430028
  H         1.5054434432       -0.4354104217        0.1606195965
       6
 i =       36, E =       -34.4426121129
  O        -1.2966493311       -0.4644778796       -0.4659231871
  H        -1.7065033314        0.4007104447       -0.2435760068
  H        -0.6421522356       -0.2422161181       -1.1479661757
  O         1.3019632056        0.4725190180        0.4722287353
  H         0.4095891167        0.3649160130        0.8551273505
  H         1.5138677566       -0.4150200579        0.1324243548
       6
 i =       37, E =       -34.4428983207
  O        -1.2967307734       -0.4622000139       -0.4678158161
  H        -1.7248905040        0.3994324460       -0.2696306395
  H        -0.6314173816       -0.2448492736       -1.1392564195
  O         1.3014372331        0.4712265524        0.4730297565
  H         0.4000699498        0.3730915691        0.8319064764
  H         1.5189093723       -0.4240072558        0.1613542002
       6
 i =       38, E =       -34.4418454270
  O        -1.2987796540       -0.4546737407       -0.4754201526
  H        -1.8587351197        0.3900853234       -0.5083498156
  H        -0.5601320436       -0.3093038199       -1.0994678639
  O         1.3019243050        0.4665089453        0.4756596525
  H         0.3036927423        0.5054868283        0.6232897139
  H         1.5225208978       -0.5137103498        0.4113542002
       6
 i =       39, E =       -34.4436313334
  O        -1.3002271154       -0.4635390515       -0.4684800287
  H        -1.7607310061        0.3825663118       -0.3449332775
  H        -0.6196632878       -0.2677598138       -1.1363177273
  O         1.3025829717        0.4688819980        0.4698918524
  H         0.3910879250        0.4040894080        0.7718911894
  H         1.5152709371       -0.4576485014        0.2491615077
       6
 i =       40, E =       -34.4442074365
  O        -1.2957876067       -0.4634266918       -0.4688965091
  H        -1.7868302214        0.3743985214       -0.3756527081
  H        -0.5927750349       -0.2673298932       -1.1093670135
  O         1.3005416113        0.4638327864        0.4725944956
  H         0.3626937784        0.4098614755        0.7258799837
  H         1.5357810179       -0.4617626586        0.2906443409
       6
 i =       41, E =       -34.4404455505
  O        -1.2874498688       -0.4619428483       -0.4731480859
  H        -1.9184767230        0.3417700635       -0.5848059239
  H        -0.5258341312       -0.3010127825       -1.0583160282
  O         1.2958938019        0.4524381428        0.4781628800
  H         0.2783579484        0.4716433800        0.5338655101
  H         1.5894140638       -0.5177799670        0.5406443409
       6
 i =       42, E =       -34.4446958986
  O        -1.2949835766       -0.4634998873       -0.4702604905
  H        -1.8032212253        0.3682203528       -0.4165552435
  H        -0.5918577357       -0.2820918236       -1.1156883962
  O         1.3006510385        0.4632731721        0.4739436168
  H         0.3533893690        0.4258169280        0.6984562438
  H         1.5345477731       -0.4728517344        0.3403024733
       6
 i =       43, E =       -34.4450866456
  O        -1.2945761912       -0.4635793262       -0.4701975410
  H        -1.8206237357        0.3605880621       -0.4471420921
  H        -0.5889546251       -0.2904867355       -1.1158867379
  O         1.3007052628        0.4624893239        0.4739833167
  H         0.3462032115        0.4326597218        0.6732968112
  H         1.5395807007       -0.4791229141        0.3799374947
       6
 i =       44, E =       -34.4436326665
  O        -1.2919298274       -0.4640089938       -0.4698059682
  H        -1.9291541486        0.3044094835       -0.6326248983
  H        -0.5650946919       -0.3385999195       -1.1107294342
  O         1.3009663816        0.4581069592        0.4765673567
  H         0.2979613163        0.4657498340        0.5078182188
  H         1.5760962060       -0.5100112358        0.6299374947
       6
 i =       45, E =       -34.4457464922
  O        -1.2942414897       -0.4635964204       -0.4690435067
  H        -1.8486059199        0.3425596038       -0.4909878079
  H        -0.5863601357       -0.3027088145       -1.1176521889
  O         1.3009262520        0.4618558777        0.4735821982
  H         0.3364148408        0.4337679292        0.6307348872
  H         1.5483268149       -0.4826854507        0.4414280664
       6
 i =       46, E =       -34.4461627223
  O        -1.2936281843       -0.4636473627       -0.4689761194
  H        -1.8686948713        0.3301414766       -0.5218493986
  H        -0.5877184988       -0.3096387524       -1.1216209732
  O         1.3004754228        0.4614240976        0.4739514186
  H         0.3316378084        0.4310236920        0.6056943617
  H         1.5574846075       -0.4834315513        0.4840274878
       6
 i =       47, E =       -34.4440464035
  O        -1.2926527534       -0.4630212525       -0.4691313900
  H        -1.9715641886        0.2482076513       -0.6930488006
  H        -0.5845455370       -0.3607008528       -1.1397753241
  O         1.3002232825        0.4592678712        0.4772030256
  H         0.2875650962        0.4264097279        0.4320109253
  H         1.5960923537       -0.4839379233        0.7340274878
       6
 i =       48, E =       -34.4468359052
  O        -1.2929859166       -0.4633254583       -0.4693159855
  H        -1.8952242830        0.3075216585       -0.5641594019
  H        -0.5972892191       -0.3239972649       -1.1372131923
  O         1.2997948523        0.4615425170        0.4741793529
  H         0.3272533687        0.4225115242        0.5715502003
  H         1.5680173446       -0.4781808423        0.5449079549
       6
 i =       49, E =       -34.4472218921
  O        -1.2928324162       -0.4629873410       -0.4692382074
  H        -1.9109502035        0.2917785318       -0.5860428340
  H        -0.6005781996       -0.3317078175       -1.1429795700
  O         1.2995299839        0.4612095861        0.4738956633
  H         0.3221311850        0.4146168780        0.5459660364
  H         1.5752999301       -0.4735093815        0.5793862702
       6
 i =       50, E =       -34.4451301908
  O        -1.2885926256       -0.4621763729       -0.4699401045
  H        -2.0352052349        0.1773718879       -0.7454178149
  H        -0.6484601883       -0.3859412382       -1.2080431238
  O         1.2954873575        0.4600137234        0.4708857232
  H         0.3085644808        0.3424170880        0.3965967720
  H         1.6447459994       -0.4318901446        0.8293862702
       6
 i =       51, E =       -34.4480205938
  O        -1.2928339440       -0.4626622431       -0.4701037719
  H        -1.9381022672        0.2522398944       -0.6233943035
  H        -0.6134427977       -0.3551066908       -1.1626711473
  O         1.2989193304        0.4613331610        0.4732275739
  H         0.3115842114        0.3939605654        0.4909734013
  H         1.5851625480       -0.4558657929        0.6475740021
       6
 i =       52, E =       -34.4484274115
  O        -1.2911834409       -0.4625231280       -0.4699139062
  H        -1.9595656021        0.2365563698       -0.6409932291
  H        -0.6301610475       -0.3616335229       -1.1796670306
  O         1.2977666748        0.4612864337        0.4710271229
  H         0.3203425499        0.3763004291        0.4865907984
  H         1.5996658931       -0.4460520242        0.6757631481
       6
 i =       53, E =       -34.4488989418
  O        -1.2887342671       -0.4626641329       -0.4701254875
  H        -2.0303203503        0.1554181761       -0.7096540236
  H        -0.6742768127       -0.4036852087       -1.2299175176
  O         1.2952241488        0.4614631389        0.4675914110
  H         0.3192014381        0.3187566425        0.4054137728
  H         1.6392269675       -0.4040241807        0.8096840813
       6
 i =       54, E =       -34.4493767994
  O        -1.2895167785       -0.4630795513       -0.4702516417
  H        -2.0090486617        0.1721396244       -0.6803370965
  H        -0.6644604071       -0.3954924601       -1.2154791794
  O         1.2957689484        0.4613098514        0.4685619451
  H         0.3205051631        0.3298407755        0.4280630821
  H         1.6273838500       -0.4093658093        0.7689014512
       6
 i =       55, E =       -34.4497620946
  O        -1.2890417246       -0.4637301072       -0.4705419153
  H        -2.0218978614        0.1469050297       -0.6825463882
  H        -0.6827952617       -0.4147903508       -1.2336214545
  O         1.2958418388        0.4622716586        0.4688388729
  H         0.3235440635        0.3170223231        0.4144444453
  H         1.6310279686       -0.3917511182        0.7971688725
       6
 i =       56, E =       -34.4504046500
  O        -1.2859495922       -0.4646954754       -0.4696242308
  H        -2.0949123475        0.0482035900       -0.6881446135
  H        -0.7350271999       -0.4581033608       -1.2692882571
  O         1.2943850952        0.4605254972        0.4634470754
  H         0.3335340404        0.2387692469        0.3484814657
  H         1.6695230828       -0.3281896266        0.9012114384
       6
 i =       57, E =       -34.4504245458
  O        -1.2855102173       -0.4659175909       -0.4704268695
  H        -2.1178679006        0.0002307376       -0.6893139098
  H        -0.7960054522       -0.5161001649       -1.3310851450
  O         1.2960243925        0.4644505636        0.4654820869
  H         0.3499066900        0.2401820025        0.3443648810
  H         1.6585824976       -0.2946122497        0.9700980587
       6
 i =       58, E =       -34.4508559804
  O        -1.2856841706       -0.4669767761       -0.4707718412
  H        -2.1084892708        0.0134539167       -0.6584514772
  H        -0.7826043179       -0.4944325417       -1.3020342600
  O         1.2953972671        0.4631241615        0.4673264865
  H         0.3502373507        0.2436863988        0.3638615043
  H         1.6519669041       -0.2998353847        0.9363967825
       6
 i =       59, E =       -34.4511571370
  O        -1.2841861484       -0.4671377959       -0.4701053775
  H        -2.1444537131       -0.0330526794       -0.6509305332
  H        -0.8062279978       -0.5064073587       -1.3100930519
  O         1.2944593137        0.4622746630        0.4665775657
  H         0.3500521603        0.2064382290        0.3281755465
  H         1.6646952982       -0.2699992193        0.9877278092
       6
 i =       60, E =       -34.4514360959
  O        -1.2846164991       -0.4658863389       -0.4686955141
  H        -2.1637596796       -0.0646464224       -0.6332708573
  H        -0.8425589852       -0.5309682317       -1.3330022711
  O         1.2949103703        0.4619002840        0.4642953309
  H         0.3547735610        0.1990575911        0.3133123517
  H         1.6542585241       -0.2482198909        1.0285826278
       6
 i =       61, E =       -34.4518475166
  O        -1.2853918772       -0.4642404534       -0.4654722068
  H        -2.2021564891       -0.1273462972       -0.5721539756
  H        -0.9288740704       -0.5786585990       -1.3792149294
  O         1.2959075930        0.4638435684        0.4643594551
  H         0.3614578225        0.2004717922        0.2931433964
  H         1.6094351591       -0.2003513622        1.1105247901
       6
 i =       62, E =       -34.4522918974
  O        -1.2895305560       -0.4628907533       -0.4643375745
  H        -2.1911629387       -0.1205498757       -0.5346428917
  H        -0.9465100204       -0.5776814698       -1.3727366498
  O         1.2934062542        0.4610364031        0.4604876584
  H         0.3560299225        0.2294638859        0.2952601195
  H         1.5754490553       -0.2033927468        1.1183518413
       6
 i =       63, E =       -34.4531763152
  O        -1.2878927128       -0.4657262408       -0.4625062631
  H        -2.2352547130       -0.1797088401       -0.4360079107
  H        -1.0210847957       -0.5817008776       -1.3851320015
  O         1.2921682719        0.4620266266        0.4639172842
  H         0.3503622876        0.2410011801        0.2737775571
  H         1.5147251772       -0.1555174754        1.1831583812
       6
 i =       64, E =       -34.4534945016
  O        -1.2899388294       -0.4643292709       -0.4599553971
  H        -2.2417220479       -0.2013566054       -0.3818690503
  H        -1.0908593055       -0.5908276682       -1.4051671385
  O         1.2896803296        0.4611662926        0.4746992067
  H         0.3346904099        0.2581529297        0.2545778393
  H         1.4566540184       -0.1247884590        1.2390575015
       6
 i =       65, E =       -34.4532049941
  O        -1.2901717123       -0.4631026020       -0.4603523597
  H        -2.2151750570       -0.1613112674       -0.3980301458
  H        -1.0859107511       -0.5628021752       -1.3965402708
  O         1.2877929657        0.4601614465        0.4824395594
  H         0.3233957182        0.2728497705        0.2670441665
  H         1.4503617191       -0.1352111715        1.2090542543
       6
 i =       66, E =       -34.4538972888
  O        -1.2914383235       -0.4634075424       -0.4628935054
  H        -2.2286631833       -0.1884290337       -0.3737729106
  H        -1.1234043893       -0.5722227927       -1.4017512047
  O         1.2828958008        0.4550023793        0.4730141162
  H         0.3306854323        0.2709404512        0.2541759961
  H         1.4413094811       -0.1099468878        1.2541881755
       6
 i =       67, E =       -34.4538857230
  O        -1.2912250320       -0.4614353247       -0.4605273151
  H        -2.2440345791       -0.2057586020       -0.3238410621
  H        -1.1802732086       -0.5767870504       -1.4242322093
  O         1.2830804487        0.4556128608        0.4680511368
  H         0.3360044573        0.2749588165        0.2505349372
  H         1.4163140119       -0.0792210545        1.2734872319
       6
 i =       68, E =       -34.4541822161
  O        -1.2910435429       -0.4632732860       -0.4624415896
  H        -2.2335795946       -0.1940226522       -0.3456157505
  H        -1.1630927381       -0.5708070902       -1.4149628063
  O         1.2826365435        0.4577775170        0.4686304014
  H         0.3336675166        0.2732599650        0.2458538839
  H         1.4278370846       -0.0818196391        1.2641679547
       6
 i =       69, E =       -34.4543332078
  O        -1.2910630122       -0.4634683289       -0.4636324150