       6
 i =        1, E =       -34.3939759272
  O        -1.4353768826       -0.1917524861       -0.9466196948
  H        -1.3939730912        0.5582894773       -1.5572104305
  H        -0.5721356099       -0.0986269384       -0.4942019969
  O         1.1780330678        0.1144608438        0.5162610272
  H         1.1132485661       -0.6654878539        1.0919553334
  H         2.0054076965       -0.0008846149       -0.0146083406
       6
 i =        2, E =       -34.4580811368
  O        -1.3946255826       -0.1834542086       -0.9293660780
  H        -1.3957309740        0.5555358416       -1.5559929039
  H        -0.5280188545       -0.0940032608       -0.4655841429
  O         1.1166932994        0.0916978452        0.4662157120
  H         1.1133542408       -0.6550405351        1.0833506360
  H         1.9837559664        0.0013704186       -0.0026371074
       6
 i =        3, E =       -34.4580814400
  O        -1.3959784771       -0.1835752182       -0.9287869393
  H        -1.3953326889        0.5551824716       -1.5557069176
  H        -0.5292127296       -0.0938405957       -0.4669250909
  O         1.1155847978        0.0899239258        0.4644526572
  H         1.1136285695       -0.6551610530        1.0837065486
  H         1.9838895606        0.0013264990       -0.0026289389
       6
 i =        4, E =       -34.4580832030
  O        -1.3949790249       -0.1833987865       -0.9293769791
  H        -1.3957689185        0.5553881976       -1.5562734655
  H        -0.5288336480       -0.0942863084       -0.4665234355
  O         1.1156083392        0.0908951135        0.4652880757
  H         1.1137892582       -0.6550193187        1.0836229772
  H         1.9835692324        0.0012154141       -0.0024918315
       6
 i =        5, E =       -34.4580832029
  O        -1.3949790249       -0.1833987865       -0.9293769791
  H        -1.3957689185        0.5553881976       -1.5562734655
  H        -0.5288336480       -0.0942863084       -0.4665234355
  O         1.1156083392        0.0908951135        0.4652880757
  H         1.1137892582       -0.6550193187        1.0836229772
  H         1.9835692324        0.0012154141       -0.0024918315
       6
 i =        1, E =       -34.4580637111
  O        -1.3958855135       -0.1835074578       -0.9292749870
  H        -1.3957322169        0.5551903012       -1.5562706927
  H        -0.5294524036       -0.0944043336       -0.4671790101
  O         1.1167929420        0.0911339739        0.4661331725
  H         1.1137074180       -0.6551445293        1.0840401689
  H         1.9839260338        0.0013448048       -0.0029857411
       6
 i =        2, E =       -34.4580832355
  O        -1.3952067040       -0.1833734952       -0.9289635567
  H        -1.3957624019        0.5551174621       -1.5562586530
  H        -0.5286888576       -0.0943487976       -0.4667378279
  O         1.1157348996        0.0907162665        0.4652517412
  H         1.1137079906       -0.6549536204        1.0839251717
  H         1.9835501234        0.0013999623       -0.0028100358
       6
 i =        3, E =       -34.4580832359
  O        -1.3952067040       -0.1833734952       -0.9289635567
  H        -1.3957624019        0.5551174621       -1.5562586530
  H        -0.5286888576       -0.0943487976       -0.4667378279
  O         1.1157348996        0.0907162665        0.4652517412
  H         1.1137079906       -0.6549536204        1.0839251717
  H         1.9835501234        0.0013999623       -0.0028100358
       6
 i =        1, E =       -34.4580827755
  O        -1.3948875540       -0.1837071478       -0.9296575190
  H        -1.3958590050        0.5551211126       -1.5565108494
  H        -0.5287247247       -0.0945083524       -0.4668039245
  O         1.1157730453        0.0911948507        0.4655650671
  H         1.1139339458       -0.6547862570        1.0838649350
  H         1.9834478292        0.0012589036       -0.0026787534
       6
 i =        2, E =       -34.4580747675
  O        -1.3936763005       -0.1841957008       -0.9307400254
  H        -1.3960808505        0.5550294822       -1.5570725444
  H        -0.5281033252       -0.0948105627       -0.4665880441
  O         1.1148637534        0.0917674031        0.4653523581
  H         1.1144464438       -0.6542262290        1.0836636627
  H         1.9828923204        0.0010016395       -0.0022499564
       6
 i =        3, E =       -34.4580829864
  O        -1.3953902640       -0.1831767531       -0.9287322694
  H        -1.3957618333        0.5549319444       -1.5564511062
  H        -0.5286090397       -0.0944621152       -0.4669424944
  O         1.1156540723        0.0906040039        0.4650734390
  H         1.1138540307       -0.6547757509        1.0840916635
  H         1.9835045372        0.0013911077       -0.0028874097
       6
 i =        4, E =       -34.4580831910
  O        -1.3949388546       -0.1836966321       -0.9295273231
  H        -1.3958250086        0.5548763955       -1.5566869245
  H        -0.5285898690       -0.0945825923       -0.4670002749
  O         1.1157424662        0.0909898189        0.4654142356
  H         1.1140220492       -0.6546323880        1.0841415007
  H         1.9834284750        0.0013341788       -0.0028382627
       6
 i =        5, E =       -34.4580833858
  O        -1.3950843747       -0.1834585667       -0.9292168055
  H        -1.3958004034        0.5548034283       -1.5567393087
  H        -0.5285207325       -0.0945989127       -0.4670385267
  O         1.1156581343        0.0909679920        0.4653156635
  H         1.1140814063       -0.6545530800        1.0841663884
  H         1.9833915934        0.0013132736       -0.0028271527
       6
 i =        6, E =       -34.4580833846
  O        -1.3950843747       -0.1834585667       -0.9292168055
  H        -1.3958004034        0.5548034283       -1.5567393087
  H        -0.5285207325       -0.0945989127       -0.4670385267
  O         1.1156581343        0.0909679920        0.4653156635
  H         1.1140814063       -0.6545530800        1.0841663884
  H         1.9833915934        0.0013132736       -0.0028271527
