       6
 i =        1, E =       -24.2612870032
  O        -1.5582258400       -0.2145498118       -0.9991055931
  H        -1.3912821041        0.5674055447       -1.5631879554
  H        -0.7069900463       -0.1126458197       -0.5767602468
  O         1.3641480474        0.1829698222        0.6671080636
  H         1.1152328033       -0.6973322114        1.1169705516
  H         2.0722034833       -0.0095014905       -0.0491353911
       6
 i =        2, E =       -34.4574029521
  O        -1.3981414874       -0.1840188070       -0.9311789802
  H        -1.3958810536        0.5557618355       -1.5562317524
  H        -0.5466325459       -0.0690512108       -0.4461524216
  O         1.1257072631        0.0719706122        0.4512411899
  H         1.1138932398       -0.6586527537        1.0867689963
  H         1.9964190408        0.0001136196       -0.0090862029
       6
 i =        3, E =       -34.4567485095
  O        -1.3873584027       -0.1768536925       -0.9250529362
  H        -1.3988064088        0.5565997318       -1.5592114878
  H        -0.5151483891       -0.1052149279       -0.4683809964
  O         1.1078295547        0.1181965541        0.4853461758
  H         1.1225583450       -0.6517546184        1.0744690921
  H         1.9704607123       -0.0075655704        0.0078871860
       6
 i =        4, E =       -34.4578995777
  O        -1.3918275007       -0.1858596866       -0.9268172960
  H        -1.3948209806        0.5534151446       -1.5539003499
  H        -0.5203343677       -0.1001430371       -0.4698303021
  O         1.1141063527        0.0989613546        0.4748041267
  H         1.1127474485       -0.6540151487        1.0844613879
  H         1.9780002264        0.0042454397       -0.0023843593
       6
 i =        5, E =       -34.4577834003
  O        -1.4014444081       -0.1794472307       -0.9298735153
  H        -1.3952101761        0.5567528227       -1.5581912910
  H        -0.5361474037       -0.0928289858       -0.4667229083
  O         1.1201023409        0.0757783560        0.4524576458
  H         1.1155058479       -0.6568703529        1.0861693139
  H         1.9923724490        0.0005772821       -0.0047146605
       6
 i =        6, E =       -34.4580779426
  O        -1.3944718219       -0.1838110759       -0.9308371225
  H        -1.3951880782        0.5556015821       -1.5567481757
  H        -0.5266321931       -0.0987910935       -0.4695707420
  O         1.1163943359        0.0899759757        0.4652785882
  H         1.1155062379       -0.6550647855        1.0843272927
  H         1.9844421238        0.0011564906       -0.0019072775
       6
 i =        7, E =       -34.4580778200
  O        -1.3961905661       -0.1827228318       -0.9275999534
  H        -1.3945978407        0.5548889246       -1.5559730614
  H        -0.5270320623       -0.0975750109       -0.4695478561
  O         1.1159333853        0.0911813762        0.4655963710
  H         1.1154720064       -0.6545752811        1.0841781182
  H         1.9839086855        0.0011583792       -0.0019377546
       6
 i =        8, E =       -34.4580810763
  O        -1.3951256501       -0.1836719409       -0.9294012830
  H        -1.3948630213        0.5551008376       -1.5563692696
  H        -0.5275131504       -0.0973327865       -0.4689767773
  O         1.1160819935        0.0908016658        0.4653430286
  H         1.1153022763       -0.6546033980        1.0844082459
  H         1.9841922454        0.0013308883       -0.0021806105
       6
 i =        9, E =       -34.4580811749
  O        -1.3950981854       -0.1834283462       -0.9293742171
  H        -1.3949989774        0.5550923200       -1.5565890450
  H        -0.5276090495       -0.0972819512       -0.4686987313
  O         1.1161115599        0.0906783321        0.4654142591
  H         1.1149885395       -0.6545147591        1.0847120650
  H         1.9841042444        0.0016518083       -0.0024635378
       6
 i =       10, E =       -34.4580811733
  O        -1.3950981854       -0.1834283462       -0.9293742171
  H        -1.3949989774        0.5550923200       -1.5565890450
  H        -0.5276090495       -0.0972819512       -0.4686987313
  O         1.1161115599        0.0906783321        0.4654142591
  H         1.1149885395       -0.6545147591        1.0847120650
  H         1.9841042444        0.0016518083       -0.0024635378
       6
 i =        1, E =       -30.4022018032
  O        -1.2301863932       -0.1530567055       -0.8587077462
  H        -1.3987257447        0.5429610453       -1.5484622054
  H        -0.3467193431       -0.0773392629       -0.3574461856
  O         0.8661115599       -0.0017264537        0.2627919680
  H         1.1122713807       -0.6119031149        1.0510090475
  H         1.8947433356        0.0132642186        0.0438148543
       6
 i =        2, E =       -33.8365953303
  O        -1.2712374027       -0.1614799870       -0.8727097621
  H        -1.3910472842        0.5437515613       -1.5434732864
  H        -0.5270117696        0.1726607371       -0.1767871926
  O         0.9704963128       -0.1864582879        0.1384027473
  H         1.1014544647       -0.6575127602        1.0834891309
  H         2.0139604853        0.0010591664       -0.0348742858
       6
 i =        3, E =       -28.1243356339
  O        -1.2735228125       -0.1623430149       -0.8746235542
  H        -1.3905822025        0.5433525319       -1.5429845984
  H        -0.7754916563        0.1061558638       -0.3548372636
  O         1.2204963128       -0.1188423707        0.3174571709
  H         1.1006736442       -0.6580399682        1.0849744822
  H         2.0150210572        0.0017242762       -0.0358521825
       6
 i =        4, E =       -26.2516038619
  O        -1.3186060686       -0.1758187387       -0.8931611240
  H        -1.3802388109        0.5442783296       -1.5362902687
  H        -0.8375411640        0.3561558638       -0.1156160516
  O         1.2219240776       -0.3052442523        0.1413662819
  H         1.0844577355       -0.7002734712        1.1146504187
  H         2.1253761897       -0.0073233980       -0.1153536998
       6
 i =        5, E =       -34.2112141405
  O        -1.2753839711       -0.1408151642       -0.8535093504
  H        -1.3717772065        0.5530449961       -1.5223800686
  H        -0.5875411640        0.3160243669       -0.1510630212
  O         1.0679698754       -0.2242343672        0.2139265774
  H         1.0731268364       -0.7482728030        1.0125112764
  H         1.9862910883       -0.0438793932       -0.1050712023
       6
 i =        6, E =       -34.1180259734
  O        -1.3024899342       -0.0959145762       -0.8121731035
  H        -1.3698074234        0.5638291431       -1.5268048968
  H        -0.6750142798        0.0660243669        0.0648510218
  O         1.1072210025       -0.1179878828        0.0829121990
  H         1.0810886858       -0.6385868027        0.9248937473
  H         2.0484317630       -0.0658062004       -0.1365459945
       6
 i =        7, E =       -34.2506250532
  O        -1.4143793770        0.0851354495       -0.6047522663
  H        -1.3300700215        0.5969366843       -1.4778676164
  H        -0.5555869255        0.0995240686       -0.1649553316
  O         1.0259643105       -0.2530044116        0.0074337028
  H         1.1178341638       -0.6841156170        0.9665752797
  H         2.0368788424       -0.1239133458       -0.1213074119
       6
 i =        8, E =       -34.4395280144
  O        -1.3523376828        0.0155700913       -0.7004760339
  H        -1.3281796566        0.6250534823       -1.4278043087
  H        -0.5709568698        0.1518647025       -0.1099277034
  O         1.0646522089       -0.2341155791        0.0996305753
  H         1.0793239992       -0.7544441214        0.8903393722
  H         1.9964467112       -0.0980873705       -0.1580549455
       6
 i =        9, E =       -34.4429108736
  O        -1.3986330415        0.0182779836       -0.6991923943
  H        -1.2902082170        0.6422993007       -1.4266763588
  H        -0.5919457011        0.1397230013       -0.1434099340
  O         1.0482908302       -0.2575466319        0.0773407820
  H         1.1033189725       -0.7508888095        0.9241000291
  H         2.0128811681       -0.0846682658       -0.1369744715
       6
 i =       10, E =       -34.4443585633
  O        -1.3969713979        0.0346992463       -0.7102742697
  H        -1.2824569232        0.6635554984       -1.4328190546
  H        -0.5901686832        0.1292471164       -0.1305927368
  O         1.0478429272       -0.2722876741        0.0967785141
  H         1.1035724383       -0.7759757196        0.9192295122
  H         1.9937262253       -0.0872177158       -0.1461228898
       6
 i =       11, E =       -34.4464331635
  O        -1.4185393259        0.0792612715       -0.7382037509
  H        -1.2463258078        0.7279695927       -1.4333429595
  H        -0.6043258007        0.0904908926       -0.1289976543
  O         1.0269823498       -0.3235222733        0.1158836277
  H         1.1220960520       -0.8271644063        0.9236460516
  H         1.9512268988       -0.0929328336       -0.1574606152
       6
 i =       12, E =       -34.4483158494
  O        -1.4410831070        0.1723261319       -0.7624822701
  H        -1.1785294055        0.8423965986       -1.4200460726
  H        -0.6140224630        0.0290230614       -0.1416476392
  O         1.0048614307       -0.4111179267        0.1357270866
  H         1.1641059234       -0.9046503779        0.9438112378
  H         1.8876995913       -0.1052733494       -0.1904593960
       6
 i =       13, E =       -34.4502989968
  O        -1.4558567720        0.2042980453       -0.7528639954
  H        -1.1496286625        0.8837370274       -1.3832941430
  H        -0.6243634112        0.0134372183       -0.1648538894
  O         0.9868567937       -0.4425267125        0.1305701402
  H         1.1962306602       -0.9312779522        0.9360739058
  H         1.8537520185       -0.1205749234       -0.2025274538
       6
 i =       14, E =       -34.4523618318
  O        -1.4624960454        0.2230249706       -0.7239489507
  H        -1.1426162631        0.9209745860       -1.2961427585
  H        -0.6399465504       -0.0103019450       -0.2142968343
  O         0.9576728270       -0.4946387746        0.1124918397
  H         1.2326620463       -0.9699444569        0.9178826811
  H         1.8133094316       -0.1185941776       -0.2273331151
       6
 i =       15, E =       -34.4534885923
  O        -1.4748702734        0.2758031085       -0.7205876184
  H        -1.1198035244        0.9890410451       -1.2656106228
  H        -0.6481965835       -0.0446938877       -0.2343819421
  O         0.9391884653       -0.5488282444        0.1158748381
  H         1.2475608167       -1.0173751906        0.9114719519
  H         1.7728402839       -0.1377975928       -0.2436892225
       6
 i =       16, E =       -34.4528509569
  O        -1.4810772787        0.3698714683       -0.7278156968
  H        -1.0955437513        1.1344921176       -1.1900008682
  H        -0.6661947719       -0.1104586404       -0.2956725629
  O         0.8978779064       -0.6523273078        0.1002568350
  H         1.2578916686       -1.1018078586        0.8774688710
  H         1.6877423813       -0.2107485925       -0.2746991457
       6
 i =       17, E =       -34.4538999292
  O        -1.4595101505        0.3052937570       -0.7263291419
  H        -1.1231791313        1.0541642674       -1.2293764009
  H        -0.6498934156       -0.0641536758       -0.2663619269
  O         0.9263097604       -0.5808771125        0.1005248616
  H         1.2237063439       -1.0429197765        0.8828141764
  H         1.7402370727       -0.1890555055       -0.2552754012
       6
 i =       18, E =       -34.4537690015
  O        -1.4636326131        0.2584963088       -0.7330382951
  H        -1.1318898571        1.0044449314       -1.2494663351
  H        -0.6506004514       -0.0423237291       -0.2567103572
  O         0.9333568248       -0.5513024608        0.1007170047
  H         1.2258585765       -1.0102255863        0.9073958098
  H         1.7723627292       -0.1337921292       -0.2513836133
       6
 i =       19, E =       -34.4544432554
  O        -1.4672694925        0.2958710246       -0.7301384368
  H        -1.1300291167        1.0532391888       -1.2243727471
  H        -0.6534624276       -0.0626422081       -0.2778192102
  O         0.9225033383       -0.5830432245        0.0931973189
  H         1.2244146171       -1.0354223980        0.8935160056
  H         1.7460980974       -0.1655180923       -0.2608247103
       6
 i =       20, E =       -34.4546369124
  O        -1.4678074531        0.2884881929       -0.7364630893
  H        -1.1431570133        1.0509037455       -1.2310249786
  H        -0.6509950084       -0.0535513518       -0.2771060645
  O         0.9265950939       -0.5697811729        0.0904209872
  H         1.2119053074       -1.0217047757        0.8942414623
  H         1.7544514018       -0.1733527391       -0.2539171203
       6
 i =       21, E =       -34.4547773344
  O        -1.4753893172        0.2752191503       -0.7463908526
  H        -1.1695893914        1.0491627220       -1.2362770746
  H        -0.6507941589       -0.0411566623       -0.2803761766
  O         0.9287306284       -0.5528016749        0.0842244587
  H         1.1881299479       -0.9996140461        0.8996096526
  H         1.7692967947       -0.1695207270       -0.2459687130
       6
 i =       22, E =       -34.4550405992
  O        -1.4821148647        0.2792947578       -0.7446515207
  H        -1.1864140558        1.0674572744       -1.2191083138
  H        -0.6525325246       -0.0424170248       -0.2927662882
  O         0.9238721543       -0.5596285830        0.0795982567
  H         1.1730652882       -0.9983552127        0.9023986707
  H         1.7670968304       -0.1711356150       -0.2468575290
       6
 i =       23, E =       -34.4554319716
  O        -1.4904570754        0.2858886032       -0.7415431408
  H        -1.2450391451        1.1112436641       -1.1788600604
  H        -0.6500934554       -0.0361054236       -0.3144680547
  O         0.9195352601       -0.5636462689        0.0746522880
  H         1.1309588859       -0.9813867403        0.9217347759
  H         1.7739961348       -0.1764209839       -0.2389284126
       6
 i =       24, E =       -34.4555835078
  O        -1.4957917074        0.2875643955       -0.7450318741
  H        -1.3057267351        1.1700381619       -1.1232340178
  H        -0.6461110399       -0.0288651773       -0.3388744025
  O         0.9147001347       -0.5682564957        0.0713289276
  H         1.0846183477       -0.9613723468        0.9425487890
  H         1.7838765655       -0.1901100838       -0.2215763051
       6
 i =       25, E =       -34.4558914114
  O        -1.4945552814        0.2915102908       -0.7363544961
  H        -1.3113607199        1.1650344239       -1.1162625514
  H        -0.6406860601       -0.0244980022       -0.3351790892
  O         0.9189387438       -0.5639872372        0.0759456874
  H         1.0850879516       -0.9558459789        0.9461054032
  H         1.7922994903       -0.1932150504       -0.2115024540
       6
 i =       26, E =       -34.4563503286
  O        -1.4906309779        0.2940739805       -0.7316895312
  H        -1.3381363223        1.1839123739       -1.0726520215
  H        -0.6281306776       -0.0104257660       -0.3386996726
  O         0.9243349554       -0.5582658608        0.0882828709
  H         1.0690786430       -0.9370768784        0.9649005820
  H         1.8083878050       -0.2098883217       -0.1832467684
       6
 i =       27, E =       -34.4565435190
  O        -1.4868436910        0.2934256255       -0.7304135524
  H        -1.4235567389        1.2559125811       -0.9385979455
  H        -0.5966972163        0.0178347779       -0.3635922678
  O         0.9343868557       -0.5525814768        0.1086055423
  H         1.0041728351       -0.8788658827        1.0251378002
  H         1.8515746578       -0.2485727223       -0.1177467634
       6
 i =       28, E =       -34.4570135675
  O        -1.4756679824        0.2832588767       -0.7439930406
  H        -1.3518343098        1.2119387139       -0.9766230125
  H        -0.6016614176        0.0072444945       -0.3461420757
  O         0.9342913373       -0.5568648895        0.1148520256
  H         1.0461697386       -0.9001879041        1.0101665014
  H         1.8340297845       -0.2401876922       -0.1357629698
       6
 i =       29, E =       -34.4572359227
  O        -1.4797881752        0.2842155205       -0.7416809041
  H        -1.3714196177        1.2244593621       -0.9503212430
  H        -0.5982085410        0.0099029034       -0.3599456261
  O         0.9328122045       -0.5607980061        0.1117617594
  H         1.0282862523       -0.8894722353        1.0184540391
  H         1.8362156762       -0.2461117530       -0.1332644578
       6
 i =       30, E =       -34.4574073146
  O        -1.4841394244        0.2832466216       -0.7437257782
  H        -1.4055042771        1.2463322332       -0.8933457431
  H        -0.5900991017        0.0149409374       -0.3854813536
  O         0.9299658406       -0.5671521746        0.1075608958
  H         0.9930007842       -0.8642257163        1.0334652771
  H         1.8437927871       -0.2564371477       -0.1246898660
       6
 i =       31, E =       -34.4575528546
  O        -1.4862416096        0.2845736564       -0.7418405785
  H        -1.4046743012        1.2412833194       -0.8927331987
  H        -0.5916112764        0.0150097070       -0.3902461772
  O         0.9274184587       -0.5681434782        0.1042512238
  H         0.9916954187       -0.8623995675        1.0285625026
  H         1.8381333407       -0.2544399945       -0.1328636132
       6
 i =       32, E =       -34.4577603030
  O        -1.4834106204        0.2886531114       -0.7465493283
  H        -1.4183124425        1.2485564139       -0.8523893992
  H        -0.5860624961        0.0234993405       -0.4091647855
  O         0.9230772196       -0.5697791356        0.1042675247
  H         0.9787980583       -0.8414766504        1.0298292619
  H         1.8324509761       -0.2616193952       -0.1355315840
       6
 i =       33, E =       -34.4579472435
  O        -1.4864577558        0.2910170973       -0.7486564789
  H        -1.4571488299        1.2546071440       -0.7953416103
  H        -0.5745479618        0.0368684532       -0.4359021991
  O         0.9219256980       -0.5658514125        0.0995001131
  H         0.9497324634       -0.7932079405        1.0443572672
  H         1.8378893721       -0.2703762742       -0.1340556205
       6
 i =       34, E =       -34.4579769092
  O        -1.4849078448        0.2947299452       -0.7486850911
  H        -1.4906339442        1.2699015540       -0.7305204259
  H        -0.5623789410        0.0500025429       -0.4571738049
  O         0.9211792962       -0.5642512177        0.1024546050
  H         0.9338105573       -0.7568526761        1.0530833733
  H         1.8436288566       -0.2828599808       -0.1228482530
       6
 i =       35, E =       -34.4580422669
  O        -1.4818532677        0.2946138954       -0.7491814754
  H        -1.4783707033        1.2611339204       -0.7537898083
  H        -0.5648383878        0.0460388112       -0.4464475875
  O         0.9233946942       -0.5627424161        0.1038532581
  H         0.9535560522       -0.7653898197        1.0458567374
  H         1.8434600473       -0.2784996712       -0.1239535085
       6
 i =       36, E =       -34.4580749201
  O        -1.4815168234        0.2942646019       -0.7498693549
  H        -1.4840089148        1.2584360697       -0.7482835755
  H        -0.5617016144        0.0465818316       -0.4525870130
  O         0.9246799414       -0.5648224856        0.1019999355
  H         0.9490538909       -0.7556308011        1.0522372041
  H         1.8439874264       -0.2819833611       -0.1267341977
       6
 i =       37, E =       -34.4580994950
  O        -1.4820070368        0.2938802989       -0.7492641096
  H        -1.4920617555        1.2607245324       -0.7324648262
  H        -0.5596651837        0.0486202578       -0.4576852809
  O         0.9240880619       -0.5645046717        0.1015077445
  H         0.9446687201       -0.7449107504        1.0529937312
  H         1.8444031197       -0.2844087913       -0.1273427368
       6
 i =       38, E =       -34.4581213440
  O        -1.4821421282        0.2925326833       -0.7487311376
  H        -1.4988596835        1.2597445659       -0.7185629541
  H        -0.5576614384        0.0502513318       -0.4615454993
  O         0.9240396530       -0.5639792445        0.1015220772
  H         0.9429603508       -0.7309516321        1.0544824529
  H         1.8451547012       -0.2874081503       -0.1287108697
       6
 i =       39, E =       -34.4581672283
  O        -1.4823102118        0.2889363948       -0.7475934183
  H        -1.5104503194        1.2551385166       -0.6941223788
  H        -0.5548110211        0.0508717595       -0.4676345095
  O         0.9240306861       -0.5643336152        0.1013503096
  H         0.9412804406       -0.6993193006        1.0586285089
  H         1.8459264877       -0.2944763287       -0.1348929106
       6
 i =       40, E =       -34.4582262423
  O        -1.4826032221        0.2849557778       -0.7464827614
  H        -1.5182171732        1.2483370077       -0.6738977769
  H        -0.5540562548        0.0486222652       -0.4698228938
  O         0.9240051563       -0.5653997936        0.1022154331
  H         0.9432132250       -0.6610378110        1.0639233882
  H         1.8458191727       -0.3035936623       -0.1447961709
       6
 i =       41, E =       -34.4583054562
  O        -1.4826645129        0.2834127755       -0.7466171666
  H        -1.5243506661        1.2430230979       -0.6517691637
  H        -0.5553225178        0.0430208388       -0.4695203933
  O         0.9235869421       -0.5677600803        0.1041664448
  H         0.9484185872       -0.6059683778        1.0714636386
  H         1.8444738143       -0.3172155349       -0.1606611853
       6
 i =       42, E =       -34.4583715188
  O        -1.4834573257        0.2845012825       -0.7470710288
  H        -1.5132741654        1.2405632915       -0.6519353655
  H        -0.5630376896        0.0320526629       -0.4569282953
  O         0.9230882092       -0.5698105839        0.1078477789
  H         0.9626009546       -0.5628414873        1.0731313971
  H         1.8403486520       -0.3274201619       -0.1796036119
       6
 i =       43, E =       -34.4583889096
  O        -1.4832564948        0.2868796666       -0.7485439630
  H        -1.5123593283        1.2445873339       -0.6311194016
  H        -0.5653816197        0.0261313638       -0.4535135442
  O         0.9230969303       -0.5712713955        0.1107185921
  H         0.9675372688       -0.5122735829        1.0799609259
  H         1.8385482117       -0.3386199593       -0.1928872971
       6
 i =       44, E =       -34.4584367847
  O        -1.4831721000        0.2896725853       -0.7488763857
  H        -1.5002728168        1.2517804872       -0.6506615035
  H        -0.5683532795        0.0247582086       -0.4471780109
  O         0.9235519657       -0.5705724903        0.1102794992
  H         0.9691193299       -0.5412355786        1.0740339632
  H         1.8376871343       -0.3294715928       -0.1869806825
       6
 i =       45, E =       -34.4584607914
  O        -1.4842314492        0.2892592635       -0.7479403027
  H        -1.4963692015        1.2514699515       -0.6582189559
  H        -0.5708070781        0.0230958051       -0.4441044581
  O         0.9238810532       -0.5691295307        0.1084737156
  H         0.9699562853       -0.5394922294        1.0729491136
  H         1.8376607198       -0.3244298746       -0.1881614200
       6
 i =       46, E =       -34.4584978151
  O        -1.4858931209        0.2899484039       -0.7469237304
  H        -1.4848663431        1.2541912977       -0.6771622817
  H        -0.5768283077        0.0190232461       -0.4364913325
  O         0.9256663710       -0.5648942445        0.1034925004
  H         0.9717589514       -0.5315585181        1.0695029827
  H         1.8373867462       -0.3094607832       -0.1915965484
       6
 i =       47, E =       -34.4585058239
  O        -1.4853269337        0.2908372787       -0.7477373167
  H        -1.4806587006        1.2557562199       -0.6844568171
  H        -0.5780951993        0.0177469554       -0.4351147181
  O         0.9268880145       -0.5634832954        0.1009654551
  H         0.9717213261       -0.5296983444        1.0675322210
  H         1.8367444679       -0.3013086727       -0.1928751013
       6
 i =       48, E =       -34.4585107666
  O        -1.4849091844        0.2913355957       -0.7483899129
  H        -1.4800157873        1.2561481653       -0.6836019871
  H        -0.5777772797        0.0176509690       -0.4359611873
  O         0.9271489485       -0.5634244332        0.1006227696
  H         0.9707851973       -0.5274891306        1.0671608723
  H         1.8356609673       -0.2978991929       -0.1930410863
       6
 i =       49, E =       -34.4585188277
  O        -1.4846867335        0.2926359957       -0.7492948007
  H        -1.4807714072        1.2569047154       -0.6769374960
  H        -0.5767237308        0.0180163644       -0.4390017395
  O         0.9269546667       -0.5635668784        0.1008613660
  H         0.9668457775       -0.5202734287        1.0669850278
  H         1.8330705161       -0.2909108940       -0.1920620767
       6
 i =       50, E =       -34.4585213470
  O        -1.4848763259        0.2932617251       -0.7492989348
  H        -1.4810281782        1.2572674255       -0.6731325287
  H        -0.5765890139        0.0178698642       -0.4397751722
  O         0.9265907786       -0.5636320789        0.1015521098
  H         0.9645092716       -0.5155857921        1.0673210400
  H         1.8321080921       -0.2883535843       -0.1910487930
       6
 i =       51, E =       -34.4585234176
  O        -1.4852370351        0.2937009610       -0.7489655794
  H        -1.4806185638        1.2574165461       -0.6699947334
  H        -0.5769345242        0.0171183305       -0.4397986818
  O         0.9260989457       -0.5637547932        0.1024446407
  H         0.9618704872       -0.5102237399        1.0678421374
  H         1.8314062069       -0.2866904186       -0.1897974124
       6
 i =       52, E =       -34.4585247053
  O        -1.4854567064        0.2936598105       -0.7486013613
  H        -1.4797018856        1.2572228751       -0.6690742543
  H        -0.5774037266        0.0161772107       -0.4393639932
  O         0.9258044734       -0.5639342165        0.1030583779
  H         0.9599220667       -0.5071758753        1.0682501131
  H         1.8313157725       -0.2866348347       -0.1886330476
       6
 i =       53, E =       -34.4585262454
  O        -1.4855979077        0.2932475663       -0.7482011539
  H        -1.4783408417        1.2567008401       -0.6691478164
  H        -0.5779174501        0.0148239917       -0.4389686753
  O         0.9256003731       -0.5642341252        0.1035806913
  H         0.9571004498       -0.5045645160        1.0686567131
  H         1.8316964299       -0.2873361872       -0.1866813682
       6
 i =       54, E =       -34.4585279696
  O        -1.4855818896        0.2924852871       -0.7479266797
  H        -1.4769771896        1.2559373579       -0.6703238347
  H        -0.5781768175        0.0134258178       -0.4390935516
  O         0.9255901953       -0.5645625425        0.1038457743
  H         0.9534528097       -0.5034123584        1.0689226002
  H         1.8326447121       -0.2886140395       -0.1838497420
       6
 i =       55, E =       -34.4585296630
  O        -1.4854312291        0.2916749114       -0.7479323209
  H        -1.4759882226        1.2552461535       -0.6719661512
  H        -0.5780632071        0.0122069337       -0.4400432453
  O         0.9257870750       -0.5648379060        0.1037417380
  H         0.9496729786       -0.5030986046        1.0689516205
  H         1.8338531997       -0.2898866061       -0.1809001288
       6
 i =       56, E =       -34.4585311157
  O        -1.4852393070        0.2911090048       -0.7481516353
  H        -1.4758257809        1.2548359923       -0.6734895332
  H        -0.5775396714        0.0117350720       -0.4416928013
  O         0.9260837806       -0.5648381597        0.1033515142
  H         0.9470423884       -0.5039978093        1.0687256423
  H         1.8349284910       -0.2906707058       -0.1788109313
       6
 i =       57, E =       -34.4585328627
  O        -1.4850721384        0.2908014585       -0.7485098562
  H        -1.4757373944        1.2547143866       -0.6747375444
  H        -0.5768660897        0.0113745215       -0.4438788534
  O         0.9263943461       -0.5646814171        0.1028927436
  H         0.9454964903       -0.5044522406        1.0683793484
  H         1.8357139060       -0.2911387003       -0.1777071681
       6
 i =       58, E =       -34.4585358663
  O        -1.4848880635        0.2905835097       -0.7490298215
  H        -1.4750856266        1.2547414329       -0.6761942545
  H        -0.5759388041        0.0106053117       -0.4473344758
  O         0.9267574227       -0.5643003530        0.1024002181
  H         0.9447493758       -0.5038216713        1.0679170568
  H         1.8363356509       -0.2915103473       -0.1775129529
       6
 i =       59, E =       -34.4585408455
  O        -1.4847619432        0.2904122004       -0.7496679564