 DBCSR| Multiplication driver                                               BLAS
 DBCSR| Multrec recursion limit                                              512
 DBCSR| Multiplication stack size                                           1000
 DBCSR| Maximum elements for images                                    UNLIMITED
 DBCSR| Multiplicative factor virtual images                                   1
 DBCSR| Multiplication size stacks                                             3
 DBCSR| Number of 3D layers                                               SINGLE
 DBCSR| Use MPI memory allocation                                              T
 DBCSR| Use RMA algorithm                                                      F
 DBCSR| Use Communication thread                                               T
 DBCSR| Communication thread load                                             87


  **** **** ******  **  PROGRAM STARTED AT               2019-05-15 00:16:49.730
 ***** ** ***  *** **   PROGRAM STARTED ON        blg8612.int.ets1.calculquebec.
 **    ****   ******    PROGRAM STARTED BY                                   rzk
 ***** **    ** ** **   PROGRAM PROCESS ID                                277575
  **** **  *******  **  PROGRAM STARTED IN /lustre03/project/6004141/rzk/GaN-car
                                           bene/00-Surface/00-Preoptimization/11
                                           4-native/Trial4

 CP2K| version string:                    CP2K version 7.0 (Development Version)
 CP2K| source code revision number:                                    svn:18619
 CP2K| cp2kflags: libint fftw3 libxc parallel mpi3 scalapack mkl                
 CP2K| is freely available from                            https://www.cp2k.org/
 CP2K| Program compiled at                          Sun Apr  7 00:48:11 EDT 2019
 CP2K| Program compiled on                      beluga2.int.ets1.calculquebec.ca
 CP2K| Program compiled for                    Beluga-Linux-x86-64-intel-openmpi
 CP2K| Data directory path    /home/rzk/projects/def-rzk/group/cp2k/cp2k-mcgill/
 CP2K| Input file name                                            114-native.inp
 
 GLOBAL| Force Environment number                                              1
 GLOBAL| Basis set file name                                        BASIS_MOLOPT
 GLOBAL| Potential file name                                      GTH_POTENTIALS
 GLOBAL| MM Potential file name                                     MM_POTENTIAL
 GLOBAL| Coordinate file name                                     114-native.xyz
 GLOBAL| Method name                                                        CP2K
 GLOBAL| Project name                                                       TEST
 GLOBAL| Preferred FFT library                                             FFTW3
 GLOBAL| Preferred diagonalization lib.                                       SL
 GLOBAL| Run type                                                       CELL_OPT
 GLOBAL| All-to-all communication in single precision                          F
 GLOBAL| FFTs using library dependent lengths                                  F
 GLOBAL| Global print level                                                  LOW
 GLOBAL| MPI I/O enabled                                                       T
 GLOBAL| Total number of message passing processes                            40
 GLOBAL| Number of threads for this process                                    1
 GLOBAL| This output is from process                                           0
 GLOBAL| CPU model name :  Intel(R) Xeon(R) Gold 6148 CPU @ 2.40GHz

 MEMORY| system memory details [Kb]
 MEMORY|                        rank 0           min           max       average
 MEMORY| MemTotal             97523924      97523924      97523924      97523924
 MEMORY| MemFree              74440772      74440276      74440772      74440424
 MEMORY| Buffers                    76            76            76            76
 MEMORY| Cached                4119184       4119184       4119184       4119184
 MEMORY| Slab                  4238856       4238856       4238856       4238856
 MEMORY| SReclaimable          1488672       1488672       1488672       1488672
 MEMORY| MemLikelyFree        80048704      80048208      80048704      80048356

 
 GENERATE|  Preliminary Number of Bonds generated:                             0
 GENERATE|  Achieved consistency in connectivity generation.

 *** WARNING in cryssym.F:163 :: Symmetry library SPGLIB not available ***


 *******************************************************************************
 *******************************************************************************
 **                                                                           **
 **     #####                         ##              ##                      **
 **    ##   ##            ##          ##              ##                      **
 **   ##     ##                       ##            ######                    **
 **   ##     ##  ##   ##  ##   #####  ##  ##   ####   ##    #####    #####    **
 **   ##     ##  ##   ##  ##  ##      ## ##   ##      ##   ##   ##  ##   ##   **
 **   ##  ## ##  ##   ##  ##  ##      ####     ###    ##   ######   ######    **
 **    ##  ###   ##   ##  ##  ##      ## ##      ##   ##   ##       ##        **
 **     #######   #####   ##   #####  ##  ##  ####    ##    #####   ##        **
 **           ##                                                    ##        **
 **                                                                           **
 **                                                ... make the atoms dance   **
 **                                                                           **
 **            Copyright (C) by CP2K developers group (2000 - 2018)           **
 **                                                                           **
 *******************************************************************************

 *** WARNING in qs_environment.F:1146 :: More added MOs requested than ***
 *** available. The full set of unoccupied MOs will be used.           ***



 TOTAL NUMBERS AND MAXIMUM NUMBERS

  Total number of            - Atomic kinds:                                   2
                             - Atoms:                                         16
                             - Shell sets:                                    16
                             - Shells:                                        96
                             - Primitive Cartesian functions:                 88
                             - Cartesian basis functions:                    352
                             - Spherical basis functions:                    304

  Maximum angular momentum of- Orbital basis functions:                        3
                             - Local part of the GTH pseudopotential:          2
                             - Non-local part of the GTH pseudopotential:      4


 SCF PARAMETERS         Density guess:                                    ATOMIC
                        --------------------------------------------------------
                        max_scf:                                             500
                        max_scf_history:                                       0
                        max_diis:                                              4
                        --------------------------------------------------------
                        eps_scf:                                        1.00E-06
                        eps_scf_history:                                0.00E+00
                        eps_diis:                                       1.00E-01
                        eps_eigval:                                     1.00E-05
                        --------------------------------------------------------
                        level_shift [a.u.]:                                 0.00
                        added MOs                                       232    0
                        --------------------------------------------------------
                        Mixing method:                              PULAY_MIXING
                                                charge density mixing in g-space
                        --------------------------------------------------------
                        No outer SCF
 
 KPOINTS| Number of kpoint groups                                              1
 KPOINTS| Size of each kpoint group                                           40
 KPOINTS| Number of kpoints per group                                         16

 CELL_OPT| Pressure tolerance [bar]:                                       100.0
 CELL_OPT| Keep angles between the cell vectors:                             YES
 CELL_OPT| Keep cell symmetry:                                               YES
 CELL_OPT| Constraint:                                                         Z

 BFGS| Use rational function optimization for step estimation:                NO
 BFGS| Use model Hessian for initial guess:                                   NO
 BFGS| Restart Hessian:                                                       NO
 BFGS| Trust radius:                                                       0.472

 *******************************************************************************
 ***                     STARTING   CELL   OPTIMIZATION                      ***
 ***                                   BFGS                                  ***
 *******************************************************************************

 CELL| Volume [angstrom^3]:                                              182.354
 CELL| Vector a [angstrom]:       3.186     0.000     0.000    |a| =       3.186
 CELL| Vector b [angstrom]:      -1.593     2.759     0.000    |b| =       3.186
 CELL| Vector c [angstrom]:       0.000     0.000    20.744    |c| =      20.744
 CELL| Angle (b,c), alpha [degree]:                                       90.000
 CELL| Angle (a,c), beta  [degree]:                                       90.000
 CELL| Angle (a,b), gamma [degree]:                                      120.000
 CELL| Numerically orthorhombic:                                              NO

 Number of electrons:                                                        144
 Number of occupied orbitals:                                                 72
 Number of molecular orbitals:                                               304

 Number of orbital functions:                                                304
 Number of independent orbital functions:                                    304

 Extrapolation method: initial_guess


 SCF WAVEFUNCTION OPTIMIZATION

  Step     Update method      Time    Convergence         Total energy    Change
  ------------------------------------------------------------------------------
     1 NoMix/Diag. 0.10E+00    1.3     2.02198618      -676.6454695186 -6.77E+02
     2 Pulay/Diag. 0.10E+00    1.5     0.04912766      -663.8346408296  1.28E+01
     3 Pulay/Diag. 0.10E+00    1.5     0.28684887      -668.1402259980 -4.31E+00
     4 Pulay/Diag. 0.10E+00    1.5     0.00561502      -675.4817905802 -7.34E+00
     5 Pulay/Diag. 0.10E+00    1.5     0.00152439      -675.4375687914  4.42E-02
     6 Pulay/Diag. 0.10E+00    1.4     0.00153083      -675.5168653118 -7.93E-02
     7 Pulay/Diag. 0.10E+00    1.5     0.00026491      -675.5371350653 -2.03E-02
     8 Pulay/Diag. 0.10E+00    1.4     0.00003523      -675.5388639579 -1.73E-03
     9 Pulay/Diag. 0.10E+00    1.4     0.00001906      -675.5389267486 -6.28E-05
    10 Pulay/Diag. 0.10E+00    1.9     0.00000904      -675.5391755554 -2.49E-04
    11 Pulay/Diag. 0.10E+00    1.4     0.00000330      -675.5391490689  2.65E-05
    12 Pulay/Diag. 0.10E+00    1.5     0.00000034      -675.5391321988  1.69E-05

  *** SCF run converged in    12 steps ***


  Electronic density on regular grids:       -143.9999999978        0.0000000022
  Core density on regular grids:              143.9999999999       -0.0000000001
  Total charge density on r-space grids:        0.0000000021
  Total charge density g-space grids:           0.0000000021

  Overlap energy of the core charge distribution:               0.00000004413162
  Self energy of the core charge distribution:               -977.15629455119449
  Core Hamiltonian energy:                                    292.81768683604503
  Hartree energy:                                             110.18644775638180
  Exchange-correlation energy:                               -101.29227497562159
  Dispersion energy:                                           -0.09469730851367

  Total energy:                                              -675.53913219877131

 ENERGY| Total FORCE_EVAL ( QS ) energy (a.u.):             -675.539127815100414


 --------  Informations at step =     0 ------------
  Optimization Method        =                 BFGS
  Total Energy               =      -675.5391278151
  Internal Pressure [bar]    =    -97012.6121927610
  Used time                  =               21.326
 ---------------------------------------------------

 --------------------------
 OPTIMIZATION STEP:      1
 --------------------------

 CELL| Volume [angstrom^3]:                                              178.189
 CELL| Vector a [angstrom]:       3.149     0.000     0.000    |a| =       3.149
 CELL| Vector b [angstrom]:      -1.575     2.727     0.000    |b| =       3.149
 CELL| Vector c [angstrom]:       0.000     0.000    20.744    |c| =      20.744
 CELL| Angle (b,c), alpha [degree]:                                       90.000
 CELL| Angle (a,c), beta  [degree]:                                       90.000
 CELL| Angle (a,b), gamma [degree]:                                      120.000
 CELL| Numerically orthorhombic:                                              NO

 Number of electrons:                                                        144
 Number of occupied orbitals:                                                 72
 Number of molecular orbitals:                                               304

 Number of orbital functions:                                                304
 Number of independent orbital functions:                                    304

 Extrapolation method: initial_guess


 SCF WAVEFUNCTION OPTIMIZATION

  Step     Update method      Time    Convergence         Total energy    Change
  ------------------------------------------------------------------------------
     1 Pulay/Diag. 0.10E+00    1.1     2.02256839      -676.7896502731 -6.77E+02
     2 Pulay/Diag. 0.10E+00    1.5     0.04911232      -663.6978227148  1.31E+01
     3 Pulay/Diag. 0.10E+00    1.5     0.28781286      -668.0973639434 -4.40E+00
     4 Pulay/Diag. 0.10E+00    1.5     0.00490773      -675.4733377379 -7.38E+00
     5 Pulay/Diag. 0.10E+00    1.5     0.00151351      -675.4441847288  2.92E-02
     6 Pulay/Diag. 0.10E+00    1.9     0.00144593      -675.5247215216 -8.05E-02
     7 Pulay/Diag. 0.10E+00    1.5     0.00025090      -675.5435279400 -1.88E-02
     8 Pulay/Diag. 0.10E+00    1.5     0.00002675      -675.5454576340 -1.93E-03
     9 Pulay/Diag. 0.10E+00    1.5     0.00001519      -675.5453588419  9.88E-05
    10 Pulay/Diag. 0.10E+00    1.5     0.00000748      -675.5456125829 -2.54E-04
    11 Pulay/Diag. 0.10E+00    1.5     0.00000318      -675.5455882103  2.44E-05
    12 Pulay/Diag. 0.10E+00    1.5     0.00000032      -675.5455784863  9.72E-06

  *** SCF run converged in    12 steps ***


  Electronic density on regular grids:       -143.9999999979        0.0000000021
  Core density on regular grids:              143.9999999999       -0.0000000001
  Total charge density on r-space grids:        0.0000000020
  Total charge density g-space grids:           0.0000000020

  Overlap energy of the core charge distribution:               0.00000006308057
  Self energy of the core charge distribution:               -977.15629455119449
  Core Hamiltonian energy:                                    293.20799664731749
  Hartree energy:                                             109.92931650715902
  Exchange-correlation energy:                               -101.42924225872306
  Dispersion energy:                                           -0.09735489389451

  Total energy:                                              -675.54557848625495

 ENERGY| Total FORCE_EVAL ( QS ) energy (a.u.):             -675.545575327426263


 --------  Informations at step =     1 ------------
  Optimization Method        =                 BFGS
  Total Energy               =      -675.5455753274
  Internal Pressure [bar]    =    -49780.0723178612
  Real energy change         =        -0.0064475123
  Predicted change in energy =        -0.0047872090
  Scaling factor             =         0.0000000000
  Step size                  =         0.0691553656
  Trust radius               =         0.4724315332
  Decrease in energy         =                  YES
  Used time                  =               21.374

  Convergence check :
  Max. step size             =         0.0691553656
  Conv. limit for step size  =         0.0030000000
  Convergence in step size   =                   NO
  RMS step size              =         0.0133155562
  Conv. limit for RMS step   =         0.0015000000
  Convergence in RMS step    =                   NO
  Max. gradient              =         0.0239660183
  Conv. limit for gradients  =         0.0004500000
  Conv. for gradients        =                   NO
  RMS gradient               =         0.0047909516
  Conv. limit for RMS grad.  =         0.0003000000
  Conv. for gradients        =                   NO
  Pressure Deviation [bar]   =    -49781.0723178612
  Pressure Tolerance [bar]   =       100.0000000000
  Conv. for  PRESSURE        =                   NO
 ---------------------------------------------------

 --------------------------
 OPTIMIZATION STEP:      2
 --------------------------

 CELL| Volume [angstrom^3]:                                              175.899
 CELL| Vector a [angstrom]:       3.129     0.000     0.000    |a| =       3.129
 CELL| Vector b [angstrom]:      -1.565     2.710     0.000    |b| =       3.129
 CELL| Vector c [angstrom]:       0.000     0.000    20.744    |c| =      20.744
 CELL| Angle (b,c), alpha [degree]:                                       90.000
 CELL| Angle (a,c), beta  [degree]:                                       90.000
 CELL| Angle (a,b), gamma [degree]:                                      120.000
 CELL| Numerically orthorhombic:                                              NO

 Number of electrons:                                                        144
 Number of occupied orbitals:                                                 72
 Number of molecular orbitals:                                               304

 Number of orbital functions:                                                304
 Number of independent orbital functions:                                    304

 Extrapolation method: initial_guess


 SCF WAVEFUNCTION OPTIMIZATION

  Step     Update method      Time    Convergence         Total energy    Change
  ------------------------------------------------------------------------------
     1 Pulay/Diag. 0.10E+00    1.5     2.02293758      -676.8704334538 -6.77E+02
     2 Pulay/Diag. 0.10E+00    2.2     0.04926410      -663.6185656377  1.33E+01
     3 Pulay/Diag. 0.10E+00    2.5     0.28959901      -668.0714214599 -4.45E+00
     4 Pulay/Diag. 0.10E+00    3.7     0.00453187      -675.4669345216 -7.40E+00
     5 Pulay/Diag. 0.10E+00    4.3     0.00150403      -675.4454876006  2.14E-02
     6 Pulay/Diag. 0.10E+00    3.9     0.00139089      -675.5264778733 -8.10E-02
     7 Pulay/Diag. 0.10E+00    3.7     0.00024559      -675.5444380723 -1.80E-02
     8 Pulay/Diag. 0.10E+00    3.7     0.00002916      -675.5465089962 -2.07E-03
     9 Pulay/Diag. 0.10E+00    3.1     0.00001402      -675.5463552344  1.54E-04
    10 Pulay/Diag. 0.10E+00    2.7     0.00000680      -675.5466031608 -2.48E-04
    11 Pulay/Diag. 0.10E+00    3.6     0.00000298      -675.5465810221  2.21E-05
    12 Pulay/Diag. 0.10E+00    3.0     0.00000034      -675.5465739408  7.08E-06

  *** SCF run converged in    12 steps ***


  Electronic density on regular grids:       -143.9999999979        0.0000000021
  Core density on regular grids:              143.9999999999       -0.0000000001
  Total charge density on r-space grids:        0.0000000019
  Total charge density g-space grids:           0.0000000019

  Overlap energy of the core charge distribution:               0.00000007685872
  Self energy of the core charge distribution:               -977.15629455119449
  Core Hamiltonian energy:                                    293.43149857945644
  Hartree energy:                                             109.78349510859351
  Exchange-correlation energy:                               -101.50639880918388
  Dispersion energy:                                           -0.09887434533567

  Total energy:                                              -675.54657394080550

 ENERGY| Total FORCE_EVAL ( QS ) energy (a.u.):             -675.546571430870358


 --------  Informations at step =     2 ------------
  Optimization Method        =                 BFGS
  Total Energy               =      -675.5465714309
  Internal Pressure [bar]    =    -21140.2810467323
  Real energy change         =        -0.0009961034
  Predicted change in energy =        -0.0009879651
  Scaling factor             =         0.0000000000
  Step size                  =         0.0383571192
  Trust radius               =         0.4724315332
  Decrease in energy         =                  YES
  Used time                  =               42.720

  Convergence check :
  Max. step size             =         0.0383571192
  Conv. limit for step size  =         0.0030000000
  Convergence in step size   =                   NO
  RMS step size              =         0.0076383433
  Conv. limit for RMS step   =         0.0015000000
  Convergence in RMS step    =                   NO
  Max. gradient              =         0.0031764151
  Conv. limit for gradients  =         0.0004500000
  Conv. for gradients        =                   NO
  RMS gradient               =         0.0016364006
  Conv. limit for RMS grad.  =         0.0003000000
  Conv. for gradients        =                   NO
  Pressure Deviation [bar]   =    -21141.2810467323
  Pressure Tolerance [bar]   =       100.0000000000
  Conv. for  PRESSURE        =                   NO
 ---------------------------------------------------

 --------------------------
 OPTIMIZATION STEP:      3
 --------------------------

 CELL| Volume [angstrom^3]:                                              175.820
 CELL| Vector a [angstrom]:       3.128     0.000     0.000    |a| =       3.128
 CELL| Vector b [angstrom]:      -1.564     2.709     0.000    |b| =       3.128
 CELL| Vector c [angstrom]:       0.000     0.000    20.744    |c| =      20.744
 CELL| Angle (b,c), alpha [degree]:                                       90.000
 CELL| Angle (a,c), beta  [degree]:                                       90.000
 CELL| Angle (a,b), gamma [degree]:                                      120.000
 CELL| Numerically orthorhombic:                                              NO

 Number of electrons:                                                        144
 Number of occupied orbitals:                                                 72
 Number of molecular orbitals:                                               304

 Number of orbital functions:                                                304
 Number of independent orbital functions:                                    304

 Extrapolation method: initial_guess


 SCF WAVEFUNCTION OPTIMIZATION

  Step     Update method      Time    Convergence         Total energy    Change
  ------------------------------------------------------------------------------
     1 Pulay/Diag. 0.10E+00    4.1     2.02297847      -676.8731689822 -6.77E+02
     2 Pulay/Diag. 0.10E+00    4.6     0.04923053      -663.6176775114  1.33E+01
     3 Pulay/Diag. 0.10E+00    3.5     0.28941595      -668.0716338225 -4.45E+00
     4 Pulay/Diag. 0.10E+00    1.5     0.00453763      -675.4670614850 -7.40E+00
     5 Pulay/Diag. 0.10E+00    1.5     0.00149820      -675.4457035087  2.14E-02
     6 Pulay/Diag. 0.10E+00    1.5     0.00138525      -675.5266556373 -8.10E-02
     7 Pulay/Diag. 0.10E+00    1.9     0.00024220      -675.5445596726 -1.79E-02
     8 Pulay/Diag. 0.10E+00    1.5     0.00002800      -675.5466277805 -2.07E-03
     9 Pulay/Diag. 0.10E+00    1.5     0.00001008      -675.5464756303  1.52E-04
    10 Pulay/Diag. 0.10E+00    1.5     0.00000395      -675.5467223943 -2.47E-04
    11 Pulay/Diag. 0.10E+00    1.5     0.00000244      -675.5466947524  2.76E-05
    12 Pulay/Diag. 0.10E+00    1.5     0.00000047      -675.5466948290 -7.67E-08

  *** SCF run converged in    12 steps ***


  Electronic density on regular grids:       -143.9999999979        0.0000000021
  Core density on regular grids:              143.9999999999       -0.0000000001
  Total charge density on r-space grids:        0.0000000020
  Total charge density g-space grids:           0.0000000020

  Overlap energy of the core charge distribution:               0.00000007671753
  Self energy of the core charge distribution:               -977.15629455119449
  Core Hamiltonian energy:                                    293.43756115066441
  Hartree energy:                                             109.77954513056683
  Exchange-correlation energy:                               -101.50856985303483
  Dispersion energy:                                           -0.09893678274844

  Total energy:                                              -675.54669482902887

 ENERGY| Total FORCE_EVAL ( QS ) energy (a.u.):             -675.546691556070869


 --------  Informations at step =     3 ------------
  Optimization Method        =                 BFGS
  Total Energy               =      -675.5466915561
  Internal Pressure [bar]    =    -20359.5736928689
  Real energy change         =        -0.0001201252
  Predicted change in energy =        -0.0000719640
  Scaling factor             =         0.0000000000
  Step size                  =         0.0033773396
  Trust radius               =         0.4724315332
  Decrease in energy         =                  YES
  Used time                  =               30.035

  Convergence check :
  Max. step size             =         0.0033773396
  Conv. limit for step size  =         0.0030000000
  Convergence in step size   =                   NO
  RMS step size              =         0.0017331493
  Conv. limit for RMS step   =         0.0015000000
  Convergence in RMS step    =                   NO
  Max. gradient              =         0.0026642261
  Conv. limit for gradients  =         0.0004500000
  Conv. for gradients        =                   NO
  RMS gradient               =         0.0012472024
  Conv. limit for RMS grad.  =         0.0003000000
  Conv. for gradients        =                   NO
  Pressure Deviation [bar]   =    -20360.5736928689
  Pressure Tolerance [bar]   =       100.0000000000
  Conv. for  PRESSURE        =                   NO
 ---------------------------------------------------

 --------------------------
 OPTIMIZATION STEP:      4
 --------------------------

 CELL| Volume [angstrom^3]:                                              175.626
 CELL| Vector a [angstrom]:       3.127     0.000     0.000    |a| =       3.127
 CELL| Vector b [angstrom]:      -1.563     2.708     0.000    |b| =       3.127
 CELL| Vector c [angstrom]:       0.000     0.000    20.744    |c| =      20.744
 CELL| Angle (b,c), alpha [degree]:                                       90.000
 CELL| Angle (a,c), beta  [degree]:                                       90.000
 CELL| Angle (a,b), gamma [degree]:                                      120.000
 CELL| Numerically orthorhombic:                                              NO

 Number of electrons:                                                        144
 Number of occupied orbitals:                                                 72
 Number of molecular orbitals:                                               304

 Number of orbital functions:                                                304
 Number of independent orbital functions:                                    304

 Extrapolation method: initial_guess


 SCF WAVEFUNCTION OPTIMIZATION

  Step     Update method      Time    Convergence         Total energy    Change
  ------------------------------------------------------------------------------
     1 Pulay/Diag. 0.10E+00    1.2     2.02310994      -676.8797159491 -6.77E+02
     2 Pulay/Diag. 0.10E+00    1.5     0.04915194      -663.6159608835  1.33E+01
     3 Pulay/Diag. 0.10E+00    1.8     0.28896395      -668.0723456847 -4.46E+00
     4 Pulay/Diag. 0.10E+00    1.5     0.00458938      -675.4675524049 -7.40E+00
     5 Pulay/Diag. 0.10E+00    1.5     0.00155272      -675.4461938082  2.14E-02
     6 Pulay/Diag. 0.10E+00    1.5     0.00137073      -675.5269585637 -8.08E-02
     7 Pulay/Diag. 0.10E+00    1.6     0.00027470      -675.5446384321 -1.77E-02
     8 Pulay/Diag. 0.10E+00    2.1     0.00008070      -675.5468334521 -2.20E-03
     9 Pulay/Diag. 0.10E+00    3.4     0.00003282      -675.5466449540  1.88E-04
    10 Pulay/Diag. 0.10E+00    4.6     0.00001345      -675.5468283076 -1.83E-04
    11 Pulay/Diag. 0.10E+00    4.2     0.00000388      -675.5468934714 -6.52E-05
    12 Pulay/Diag. 0.10E+00    3.3     0.00000189      -675.5468764879  1.70E-05
    13 Pulay/Diag. 0.10E+00    3.0     0.00000141      -675.5468757500  7.38E-07
    14 Pulay/Diag. 0.10E+00    3.0     0.00000095      -675.5468706115  5.14E-06

  *** SCF run converged in    14 steps ***


  Electronic density on regular grids:       -143.9999999978        0.0000000022
  Core density on regular grids:              143.9999999999       -0.0000000001
  Total charge density on r-space grids:        0.0000000021
  Total charge density g-space grids:           0.0000000021

  Overlap energy of the core charge distribution:               0.00000007646882
  Self energy of the core charge distribution:               -977.15629455119449
  Core Hamiltonian energy:                                    293.45164930738645
  Hartree energy:                                             109.77051269567971
  Exchange-correlation energy:                               -101.51362966295406
  Dispersion energy:                                           -0.09910847687064

  Total energy:                                              -675.54687061148422

 ENERGY| Total FORCE_EVAL ( QS ) energy (a.u.):             -675.546873529703589


 --------  Informations at step =     4 ------------
  Optimization Method        =                 BFGS
  Total Energy               =      -675.5468735297
  Internal Pressure [bar]    =    -18466.9335815740
  Real energy change         =        -0.0001819736
  Predicted change in energy =        -0.0001752248
  Scaling factor             =         0.0000000000
  Step size                  =         0.0117415241
  Trust radius               =         0.4724315332
  Decrease in energy         =                  YES
  Used time                  =               39.271

  Convergence check :
  Max. step size             =         0.0117415241
  Conv. limit for step size  =         0.0030000000
  Convergence in step size   =                   NO
  RMS step size              =         0.0055122955
  Conv. limit for RMS step   =         0.0015000000
  Convergence in RMS step    =                   NO
  Max. gradient              =         0.0016604368
  Conv. limit for gradients  =         0.0004500000
  Conv. for gradients        =                   NO
  RMS gradient               =         0.0004859089
  Conv. limit for RMS grad.  =         0.0003000000
  Conv. for gradients        =                   NO
  Pressure Deviation [bar]   =    -18467.9335815740
  Pressure Tolerance [bar]   =       100.0000000000
  Conv. for  PRESSURE        =                   NO
 ---------------------------------------------------

 --------------------------
 OPTIMIZATION STEP:      5
 --------------------------

 CELL| Volume [angstrom^3]:                                              175.657
 CELL| Vector a [angstrom]:       3.127     0.000     0.000    |a| =       3.127
 CELL| Vector b [angstrom]:      -1.563     2.708     0.000    |b| =       3.127
 CELL| Vector c [angstrom]:       0.000     0.000    20.744    |c| =      20.744
 CELL| Angle (b,c), alpha [degree]:                                       90.000
 CELL| Angle (a,c), beta  [degree]:                                       90.000
 CELL| Angle (a,b), gamma [degree]:                                      120.000
 CELL| Numerically orthorhombic:                                              NO

 Number of electrons:                                                        144
 Number of occupied orbitals:                                                 72
 Number of molecular orbitals:                                               304

 Number of orbital functions:                                                304
 Number of independent orbital functions:                                    304

 Extrapolation method: initial_guess


 SCF WAVEFUNCTION OPTIMIZATION

  Step     Update method      Time    Convergence         Total energy    Change
  ------------------------------------------------------------------------------
     1 Pulay/Diag. 0.10E+00    4.1     2.02310356      -676.8786614526 -6.77E+02
     2 Pulay/Diag. 0.10E+00    4.2     0.04916600      -663.6166376714  1.33E+01
     3 Pulay/Diag. 0.10E+00    4.1     0.28895125      -668.0724784452 -4.46E+00
     4 Pulay/Diag. 0.10E+00    3.7     0.00459372      -675.4675693471 -7.40E+00
     5 Pulay/Diag. 0.10E+00    3.8     0.00156780      -675.4461760415  2.14E-02
     6 Pulay/Diag. 0.10E+00    4.0     0.00137341      -675.5269267401 -8.08E-02
     7 Pulay/Diag. 0.10E+00    2.1     0.00028207      -675.5445972954 -1.77E-02
     8 Pulay/Diag. 0.10E+00    1.5     0.00009213      -675.5468450699 -2.25E-03
     9 Pulay/Diag. 0.10E+00    1.5     0.00003284      -675.5466614517  1.84E-04
    10 Pulay/Diag. 0.10E+00    1.5     0.00001317      -675.5468281675 -1.67E-04
    11 Pulay/Diag. 0.10E+00    1.5     0.00000481      -675.5469035930 -7.54E-05
    12 Pulay/Diag. 0.10E+00    1.5     0.00000235      -675.5468864195  1.72E-05
    13 Pulay/Diag. 0.10E+00    1.5     0.00000181      -675.5468851332  1.29E-06
    14 Pulay/Diag. 0.10E+00    1.5     0.00000109      -675.5468794913  5.64E-06
    15 Pulay/Diag. 0.10E+00    1.5     0.00000048      -675.5468830761 -3.58E-06

  *** SCF run converged in    15 steps ***


  Electronic density on regular grids:       -143.9999999978        0.0000000022
  Core density on regular grids:              143.9999999999       -0.0000000001
  Total charge density on r-space grids:        0.0000000021
  Total charge density g-space grids:           0.0000000021

  Overlap energy of the core charge distribution:               0.00000007637936
  Self energy of the core charge distribution:               -977.15629455119449
  Core Hamiltonian energy:                                    293.44901642653087
  Hartree energy:                                             109.77220522226293
  Exchange-correlation energy:                               -101.51272653266649
  Dispersion energy:                                           -0.09908371743030

  Total energy:                                              -675.54688307611809

 ENERGY| Total FORCE_EVAL ( QS ) energy (a.u.):             -675.546883004430924


 --------  Informations at step =     5 ------------
  Optimization Method        =                 BFGS
  Total Energy               =      -675.5468830044
  Internal Pressure [bar]    =    -18820.0571252121
  Real energy change         =        -0.0000094747
  Predicted change in energy =        -0.0000064905
  Scaling factor             =         0.0000000000
  Step size                  =         0.0017489410
  Trust radius               =         0.4724315332
  Decrease in energy         =                  YES
  Used time                  =               42.700

  Convergence check :
  Max. step size             =         0.0017489410
  Conv. limit for step size  =         0.0030000000
  Convergence in step size   =                  YES
  RMS step size              =         0.0005981979
  Conv. limit for RMS step   =         0.0015000000
  Convergence in RMS step    =                  YES
  Max. gradient              =         0.0008660329
  Conv. limit for gradients  =         0.0004500000
  Conv. for gradients        =                   NO
  RMS gradient               =         0.0002979680
  Conv. limit for RMS grad.  =         0.0003000000
  Conv. in RMS gradients     =                  YES
  Pressure Deviation [bar]   =    -18821.0571252121
  Pressure Tolerance [bar]   =       100.0000000000
  Conv. for  PRESSURE        =                   NO
 ---------------------------------------------------

 --------------------------
 OPTIMIZATION STEP:      6
 --------------------------

 CELL| Volume [angstrom^3]:                                              175.660
 CELL| Vector a [angstrom]:       3.127     0.000     0.000    |a| =       3.127
 CELL| Vector b [angstrom]:      -1.563     2.708     0.000    |b| =       3.127
 CELL| Vector c [angstrom]:       0.000     0.000    20.744    |c| =      20.744
 CELL| Angle (b,c), alpha [degree]:                                       90.000
 CELL| Angle (a,c), beta  [degree]:                                       90.000
 CELL| Angle (a,b), gamma [degree]:                                      120.000
 CELL| Numerically orthorhombic:                                              NO

 Number of electrons:                                                        144
 Number of occupied orbitals:                                                 72
 Number of molecular orbitals:                                               304

 Number of orbital functions:                                                304
 Number of independent orbital functions:                                    304

 Extrapolation method: initial_guess


 SCF WAVEFUNCTION OPTIMIZATION

  Step     Update method      Time    Convergence         Total energy    Change
  ------------------------------------------------------------------------------
     1 Pulay/Diag. 0.10E+00    1.2     2.02311129      -676.8785908812 -6.77E+02
     2 Pulay/Diag. 0.10E+00    1.5     0.04918085      -663.6166641634  1.33E+01
     3 Pulay/Diag. 0.10E+00    1.5     0.28900135      -668.0724782747 -4.46E+00
     4 Pulay/Diag. 0.10E+00    1.5     0.00460327      -675.4675780318 -7.40E+00
     5 Pulay/Diag. 0.10E+00    1.5     0.00160261      -675.4461899148  2.14E-02
     6 Pulay/Diag. 0.10E+00    1.5     0.00137499      -675.5268613323 -8.07E-02
     7 Pulay/Diag. 0.10E+00    1.5     0.00029771      -675.5444546314 -1.76E-02
     8 Pulay/Diag. 0.10E+00    1.9     0.00011269      -675.5468364427 -2.38E-03
     9 Pulay/Diag. 0.10E+00    1.5     0.00003048      -675.5466848758  1.52E-04
    10 Pulay/Diag. 0.10E+00    1.5     0.00001269      -675.5468221257 -1.37E-04
    11 Pulay/Diag. 0.10E+00    1.5     0.00000708      -675.5469108534 -8.87E-05
    12 Pulay/Diag. 0.10E+00    1.5     0.00000357      -675.5468934373  1.74E-05
    13 Pulay/Diag. 0.10E+00    1.6     0.00000274      -675.5468908611  2.58E-06
    14 Pulay/Diag. 0.10E+00    1.5     0.00000124      -675.5468839457  6.92E-06
    15 Pulay/Diag. 0.10E+00    1.5     0.00000042      -675.5468888035 -4.86E-06

  *** SCF run converged in    15 steps ***


  Electronic density on regular grids:       -143.9999999978        0.0000000022
  Core density on regular grids:              143.9999999999       -0.0000000001
  Total charge density on r-space grids:        0.0000000021
  Total charge density g-space grids:           0.0000000021

  Overlap energy of the core charge distribution:               0.00000007640236
  Self energy of the core charge distribution:               -977.15629455119449
  Core Hamiltonian energy:                                    293.44884873554963
  Hartree energy:                                             109.77232250707189
  Exchange-correlation energy:                               -101.51268491176201
  Dispersion energy:                                           -0.09908065959371

  Total energy:                                              -675.54688880352637

 ENERGY| Total FORCE_EVAL ( QS ) energy (a.u.):             -675.546888726340853


 --------  Informations at step =     6 ------------
  Optimization Method        =                 BFGS
  Total Energy               =      -675.5468887263
  Internal Pressure [bar]    =    -18833.3859869764
  Real energy change         =        -0.0000057219
  Predicted change in energy =        -0.0000055972
  Scaling factor             =         0.0000000000
  Step size                  =         0.0020566750
  Trust radius               =         0.4724315332
  Decrease in energy         =                  YES
  Used time                  =               26.114

  Convergence check :
  Max. step size             =         0.0020566750
  Conv. limit for step size  =         0.0030000000
  Convergence in step size   =                  YES
  RMS step size              =         0.0006978000
  Conv. limit for RMS step   =         0.0015000000
  Convergence in RMS step    =                  YES
  Max. gradient              =         0.0003399348
  Conv. limit for gradients  =         0.0004500000
  Conv. in gradients         =                  YES
  RMS gradient               =         0.0001602185
  Conv. limit for RMS grad.  =         0.0003000000
  Conv. in RMS gradients     =                  YES
  Pressure Deviation [bar]   =    -18834.3859869764
  Pressure Tolerance [bar]   =       100.0000000000
  Conv. for  PRESSURE        =                   NO
 ---------------------------------------------------

 --------------------------
 OPTIMIZATION STEP:      7
 --------------------------

 CELL| Volume [angstrom^3]:                                              175.659
 CELL| Vector a [angstrom]:       3.127     0.000     0.000    |a| =       3.127
 CELL| Vector b [angstrom]:      -1.563     2.708     0.000    |b| =       3.127
 CELL| Vector c [angstrom]:       0.000     0.000    20.744    |c| =      20.744
 CELL| Angle (b,c), alpha [degree]:                                       90.000
 CELL| Angle (a,c), beta  [degree]:                                       90.000
 CELL| Angle (a,b), gamma [degree]:                                      120.000
 CELL| Numerically orthorhombic:                                              NO

 Number of electrons:                                                        144
 Number of occupied orbitals:                                                 72
 Number of molecular orbitals:                                               304

 Number of orbital functions:                                                304
 Number of independent orbital functions:                                    304

 Extrapolation method: initial_guess


 SCF WAVEFUNCTION OPTIMIZATION

  Step     Update method      Time    Convergence         Total energy    Change
  ------------------------------------------------------------------------------
     1 Pulay/Diag. 0.10E+00    1.6     2.02310842      -676.8786454399 -6.77E+02
     2 Pulay/Diag. 0.10E+00    1.5     0.04918145      -663.6166037331  1.33E+01
     3 Pulay/Diag. 0.10E+00    1.5     0.28900235      -668.0724568291 -4.46E+00
     4 Pulay/Diag. 0.10E+00    1.5     0.00460021      -675.4675727922 -7.40E+00
     5 Pulay/Diag. 0.10E+00    1.5     0.00160507      -675.4461922056  2.14E-02
     6 Pulay/Diag. 0.10E+00    1.5     0.00137534      -675.5268573197 -8.07E-02
     7 Pulay/Diag. 0.10E+00    1.5     0.00029874      -675.5444442915 -1.76E-02
     8 Pulay/Diag. 0.10E+00    1.5     0.00011396      -675.5468360870 -2.39E-03
     9 Pulay/Diag. 0.10E+00    1.5     0.00003039      -675.5466876905  1.48E-04
    10 Pulay/Diag. 0.10E+00    1.5     0.00001271      -675.5468232761 -1.36E-04
    11 Pulay/Diag. 0.10E+00    1.8     0.00000729      -675.5469126270 -8.94E-05
    12 Pulay/Diag. 0.10E+00    1.5     0.00000369      -675.5468951868  1.74E-05
    13 Pulay/Diag. 0.10E+00    1.5     0.00000282      -675.5468924876  2.70E-06
    14 Pulay/Diag. 0.10E+00    1.5     0.00000124      -675.5468854442  7.04E-06
    15 Pulay/Diag. 0.10E+00    1.5     0.00000042      -675.5468904128 -4.97E-06

  *** SCF run converged in    15 steps ***


  Electronic density on regular grids:       -143.9999999978        0.0000000022
  Core density on regular grids:              143.9999999999       -0.0000000001
  Total charge density on r-space grids:        0.0000000021
  Total charge density g-space grids:           0.0000000021

  Overlap energy of the core charge distribution:               0.00000007641793
  Self energy of the core charge distribution:               -977.15629455119449
  Core Hamiltonian energy:                                    293.44900550231694
  Hartree energy:                                             109.77222140653689
  Exchange-correlation energy:                               -101.51274137793848
  Dispersion energy:                                           -0.09908146898199

  Total energy:                                              -675.54689041284325

 ENERGY| Total FORCE_EVAL ( QS ) energy (a.u.):             -675.546890336319962


 --------  Informations at step =     7 ------------
  Optimization Method        =                 BFGS
  Total Energy               =      -675.5468903363
  Internal Pressure [bar]    =    -18813.7847986894
  Real energy change         =        -0.0000016100
  Predicted change in energy =        -0.0000008301
  Scaling factor             =         0.0000000000
  Step size                  =         0.0004946765
  Trust radius               =         0.4724315332
  Decrease in energy         =                  YES
  Used time                  =               26.340

  Convergence check :
  Max. step size             =         0.0004946765
  Conv. limit for step size  =         0.0030000000
  Convergence in step size   =                  YES
  RMS step size              =         0.0002327840
  Conv. limit for RMS step   =         0.0015000000
  Convergence in RMS step    =                  YES
  Max. gradient              =         0.0003735480
  Conv. limit for gradients  =         0.0004500000
  Conv. in gradients         =                  YES
  RMS gradient               =         0.0001812735
  Conv. limit for RMS grad.  =         0.0003000000
  Conv. in RMS gradients     =                  YES
  Pressure Deviation [bar]   =    -18814.7847986894
  Pressure Tolerance [bar]   =       100.0000000000
  Conv. for  PRESSURE        =                   NO
 ---------------------------------------------------

 --------------------------
 OPTIMIZATION STEP:      8
 --------------------------

 CELL| Volume [angstrom^3]:                                              175.444
 CELL| Vector a [angstrom]:       3.125     0.000     0.000    |a| =       3.125
 CELL| Vector b [angstrom]:      -1.563     2.706     0.000    |b| =       3.125
 CELL| Vector c [angstrom]:       0.000     0.000    20.744    |c| =      20.744
 CELL| Angle (b,c), alpha [degree]:                                       90.000
 CELL| Angle (a,c), beta  [degree]:                                       90.000
 CELL| Angle (a,b), gamma [degree]:                                      120.000
 CELL| Numerically orthorhombic:                                              NO

 Number of electrons:                                                        144
 Number of occupied orbitals:                                                 72
 Number of molecular orbitals:                                               304

 Number of orbital functions:                                                304
 Number of independent orbital functions:                                    304

 Extrapolation method: initial_guess


 SCF WAVEFUNCTION OPTIMIZATION

  Step     Update method      Time    Convergence         Total energy    Change
  ------------------------------------------------------------------------------
     1 Pulay/Diag. 0.10E+00    1.2     2.02358074      -676.8857123325 -6.77E+02
     2 Pulay/Diag. 0.10E+00    1.5     0.04925389      -663.6058853333  1.33E+01
     3 Pulay/Diag. 0.10E+00    1.9     0.29005419      -668.0672633174 -4.46E+00
     4 Pulay/Diag. 0.10E+00    1.5     0.00496889      -675.4657373634 -7.40E+00
     5 Pulay/Diag. 0.10E+00    1.5     0.00190971      -675.4446205788  2.11E-02
     6 Pulay/Diag. 0.10E+00    1.5     0.00138039      -675.5233389437 -7.87E-02
     7 Pulay/Diag. 0.10E+00    1.5     0.00043028      -675.5409857343 -1.76E-02
     8 Pulay/Diag. 0.10E+00    1.5     0.00017612      -675.5444850534 -3.50E-03
     9 Pulay/Diag. 0.10E+00    1.5     0.00008709      -675.5447161323 -2.31E-04
    10 Pulay/Diag. 0.10E+00    1.5     0.00005530      -675.5447766707 -6.05E-05
    11 Pulay/Diag. 0.10E+00    1.5     0.00004482      -675.5448630018 -8.63E-05
    12 Pulay/Diag. 0.10E+00    1.5     0.00001405      -675.5448096678  5.33E-05
    13 Pulay/Diag. 0.10E+00    1.9     0.00000353      -675.5447967079  1.30E-05
    14 Pulay/Diag. 0.10E+00    1.5     0.00000053      -675.5447850862  1.16E-05

  *** SCF run converged in    14 steps ***


  Electronic density on regular grids:       -143.9999999976        0.0000000024
  Core density on regular grids:              143.9999999999       -0.0000000001
  Total charge density on r-space grids:        0.0000000023
  Total charge density g-space grids:           0.0000000023

  Overlap energy of the core charge distribution:               0.00000008083511
  Self energy of the core charge distribution:               -977.15629455119449
  Core Hamiltonian energy:                                    293.47281887907224
  Hartree energy:                                             109.75797635276490
  Exchange-correlation energy:                               -101.52008710048838
  Dispersion energy:                                           -0.09919874721669

  Total energy:                                              -675.54478508622731

 ENERGY| Total FORCE_EVAL ( QS ) energy (a.u.):             -675.544792667450679


 --------  Informations at step =     8 ------------
  Optimization Method        =                 BFGS
  Total Energy               =      -675.5447926675
  Internal Pressure [bar]    =    -15494.6590114016
  Real energy change         =         0.0020976689
  Predicted change in energy =        -0.0001532687
  Scaling factor             =         0.0000000000
  Step size                  =         0.0907453463
  Trust radius               =         0.4724315332
  Decrease in energy         =                   NO
  Used time                  =               25.266

  Convergence check :
  Max. step size             =         0.0907453463
  Conv. limit for step size  =         0.0030000000
  Convergence in step size   =                   NO
  RMS step size              =         0.0417128694
  Conv. limit for RMS step   =         0.0015000000
  Convergence in RMS step    =                   NO
  Max. gradient              =         0.0138771807
  Conv. limit for gradients  =         0.0004500000
  Conv. for gradients        =                   NO
  RMS gradient               =         0.0054468293
  Conv. limit for RMS grad.  =         0.0003000000
  Conv. for gradients        =                   NO
  Pressure Deviation [bar]   =    -15495.6590114016
  Pressure Tolerance [bar]   =       100.0000000000
  Conv. for  PRESSURE        =                   NO
 ---------------------------------------------------

 --------------------------
 OPTIMIZATION STEP:      9
 --------------------------

 CELL| Volume [angstrom^3]:                                              175.648
 CELL| Vector a [angstrom]:       3.127     0.000     0.000    |a| =       3.127
 CELL| Vector b [angstrom]:      -1.563     2.708     0.000    |b| =       3.127
 CELL| Vector c [angstrom]:       0.000     0.000    20.744    |c| =      20.744
 CELL| Angle (b,c), alpha [degree]:                                       90.000
 CELL| Angle (a,c), beta  [degree]:                                       90.000
 CELL| Angle (a,b), gamma [degree]:                                      120.000
 CELL| Numerically orthorhombic:                                              NO

 Number of electrons:                                                        144
 Number of occupied orbitals:                                                 72
 Number of molecular orbitals:                                               304

 Number of orbital functions:                                                304
 Number of independent orbital functions:                                    304

 Extrapolation method: initial_guess


 SCF WAVEFUNCTION OPTIMIZATION

  Step     Update method      Time    Convergence         Total energy    Change
  ------------------------------------------------------------------------------
     1 Pulay/Diag. 0.10E+00    3.9     2.02306320      -676.8790758431 -6.77E+02
     2 Pulay/Diag. 0.10E+00    4.2     0.04918138      -663.6161354238  1.33E+01
     3 Pulay/Diag. 0.10E+00    3.6     0.28898085      -668.0722926979 -4.46E+00
     4 Pulay/Diag. 0.10E+00    3.7     0.00455583      -675.4675452611 -7.40E+00
     5 Pulay/Diag. 0.10E+00    3.8     0.00162172      -675.4462248380  2.13E-02
     6 Pulay/Diag. 0.10E+00    4.0     0.00137967      -675.5268428771 -8.06E-02
     7 Pulay/Diag. 0.10E+00    2.1     0.00030569      -675.5443864562 -1.75E-02
     8 Pulay/Diag. 0.10E+00    1.5     0.00012267      -675.5468473452 -2.46E-03
     9 Pulay/Diag. 0.10E+00    1.5     0.00002972      -675.5467230464  1.24E-04
    10 Pulay/Diag. 0.10E+00    1.5     0.00001455      -675.5468486321 -1.26E-04
    11 Pulay/Diag. 0.10E+00    1.5     0.00000920      -675.5469415848 -9.30E-05
    12 Pulay/Diag. 0.10E+00    1.5     0.00000482      -675.5469238084  1.78E-05
    13 Pulay/Diag. 0.10E+00    1.5     0.00000345      -675.5469200714  3.74E-06
    14 Pulay/Diag. 0.10E+00    1.5     0.00000122      -675.5469119341  8.14E-06
    15 Pulay/Diag. 0.10E+00    1.5     0.00000038      -675.5469177567 -5.82E-06

  *** SCF run converged in    15 steps ***


  Electronic density on regular grids:       -143.9999999978        0.0000000022
  Core density on regular grids:              143.9999999999       -0.0000000001
  Total charge density on r-space grids:        0.0000000021
  Total charge density g-space grids:           0.0000000021

  Overlap energy of the core charge distribution:               0.00000007655814
  Self energy of the core charge distribution:               -977.15629455119449
  Core Hamiltonian energy:                                    293.45021431129675
  Hartree energy:                                             109.77144688230283
  Exchange-correlation energy:                               -101.51319743648084
  Dispersion energy:                                           -0.09908703917308

  Total energy:                                              -675.54691775669073

 ENERGY| Total FORCE_EVAL ( QS ) energy (a.u.):             -675.546917687245923


 --------  Informations at step =     9 ------------
  Optimization Method        =                 BFGS
  Total Energy               =      -675.5469176872
  Internal Pressure [bar]    =    -18675.8301055299
  Real energy change         =        -0.0021250198
  Predicted change in energy =        -0.0019656285
  Scaling factor             =         0.0000000000
  Step size                  =         0.0837456714
  Trust radius               =         0.4724315332
  Decrease in energy         =                  YES
  Used time                  =               41.639

  Convergence check :
  Max. step size             =         0.0837456714
  Conv. limit for step size  =         0.0030000000
  Convergence in step size   =                   NO
  RMS step size              =         0.0383897336
  Conv. limit for RMS step   =         0.0015000000
  Convergence in RMS step    =                   NO
  Max. gradient              =         0.0013748377
  Conv. limit for gradients  =         0.0004500000
  Conv. for gradients        =                   NO
  RMS gradient               =         0.0005871100
  Conv. limit for RMS grad.  =         0.0003000000
  Conv. for gradients        =                   NO
  Pressure Deviation [bar]   =    -18676.8301055299
  Pressure Tolerance [bar]   =       100.0000000000
  Conv. for  PRESSURE        =                   NO
 ---------------------------------------------------

 --------------------------
 OPTIMIZATION STEP:     10
 --------------------------

 CELL| Volume [angstrom^3]:                                              175.641
 CELL| Vector a [angstrom]:       3.127     0.000     0.000    |a| =       3.127
 CELL| Vector b [angstrom]:      -1.563     2.708     0.000    |b| =       3.127
 CELL| Vector c [angstrom]:       0.000     0.000    20.744    |c| =      20.744
 CELL| Angle (b,c), alpha [degree]:                                       90.000
 CELL| Angle (a,c), beta  [degree]:                                       90.000
 CELL| Angle (a,b), gamma [degree]:                                      120.000
 CELL| Numerically orthorhombic:                                              NO

 Number of electrons:                                                        144
 Number of occupied orbitals:                                                 72
 Number of molecular orbitals:                                               304

 Number of orbital functions:                                                304
 Number of independent orbital functions:                                    304

 Extrapolation method: initial_guess


 SCF WAVEFUNCTION OPTIMIZATION

  Step     Update method      Time    Convergence         Total energy    Change
  ------------------------------------------------------------------------------
     1 Pulay/Diag. 0.10E+00    1.3     2.02309914      -676.8794270434 -6.77E+02
     2 Pulay/Diag. 0.10E+00    1.5     0.04918069      -663.6156825437  1.33E+01
     3 Pulay/Diag. 0.10E+00    1.5     0.28896554      -668.0721130197 -4.46E+00
     4 Pulay/Diag. 0.10E+00    1.5     0.00458615      -675.4675176521 -7.40E+00
     5 Pulay/Diag. 0.10E+00    1.5     0.00162988      -675.4462519605  2.13E-02
     6 Pulay/Diag. 0.10E+00    1.5     0.00138357      -675.5268461002 -8.06E-02
     7 Pulay/Diag. 0.10E+00    1.5     0.00030912      -675.5443693365 -1.75E-02
     8 Pulay/Diag. 0.10E+00    1.5     0.00012718      -675.5468658432 -2.50E-03
     9 Pulay/Diag. 0.10E+00    1.8     0.00002939      -675.5467548285  1.11E-04
    10 Pulay/Diag. 0.10E+00    1.5     0.00001608      -675.5468761415 -1.21E-04
    11 Pulay/Diag. 0.10E+00    1.5     0.00001054      -675.5469705192 -9.44E-05
    12 Pulay/Diag. 0.10E+00    1.5     0.00000563      -675.5469523318  1.82E-05
    13 Pulay/Diag. 0.10E+00    1.5     0.00000378      -675.5469479270  4.40E-06
    14 Pulay/Diag. 0.10E+00    1.5     0.00000117      -675.5469390919  8.84E-06
    15 Pulay/Diag. 0.10E+00    1.5     0.00000036      -675.5469453882 -6.30E-06

  *** SCF run converged in    15 steps ***


  Electronic density on regular grids:       -143.9999999978        0.0000000022
  Core density on regular grids:              143.9999999999       -0.0000000001
  Total charge density on r-space grids:        0.0000000021
  Total charge density g-space grids:           0.0000000021

  Overlap energy of the core charge distribution:               0.00000007670950
  Self energy of the core charge distribution:               -977.15629455119449
  Core Hamiltonian energy:                                    293.45123783650820
  Hartree energy:                                             109.77079477809254
  Exchange-correlation energy:                               -101.51359350830541
  Dispersion energy:                                           -0.09909002005116

  Total energy:                                              -675.54694538824072

 ENERGY| Total FORCE_EVAL ( QS ) energy (a.u.):             -675.546945322404440


 --------  Informations at step =    10 ------------
  Optimization Method        =                 BFGS
  Total Energy               =      -675.5469453224
  Internal Pressure [bar]    =    -18564.4129544322
  Real energy change         =        -0.0000276352
  Predicted change in energy =        -0.0000164885
  Scaling factor             =         0.0000000000
  Step size                  =         0.0070154664
  Trust radius               =         0.4724315332
  Decrease in energy         =                  YES
  Used time                  =               26.105

  Convergence check :
  Max. step size             =         0.0070154664
  Conv. limit for step size  =         0.0030000000
  Convergence in step size   =                   NO
  RMS step size              =         0.0032944668
  Conv. limit for RMS step   =         0.0015000000
  Convergence in RMS step    =                   NO
  Max. gradient              =         0.0024135688
  Conv. limit for gradients  =         0.0004500000
  Conv. for gradients        =                   NO
  RMS gradient               =         0.0009906719
  Conv. limit for RMS grad.  =         0.0003000000
  Conv. for gradients        =                   NO
  Pressure Deviation [bar]   =    -18565.4129544322
  Pressure Tolerance [bar]   =       100.0000000000
  Conv. for  PRESSURE        =                   NO
 ---------------------------------------------------

 --------------------------
 OPTIMIZATION STEP:     11
 --------------------------

 CELL| Volume [angstrom^3]:                                              175.631
 CELL| Vector a [angstrom]:       3.127     0.000     0.000    |a| =       3.127
 CELL| Vector b [angstrom]:      -1.563     2.708     0.000    |b| =       3.127
 CELL| Vector c [angstrom]:       0.000     0.000    20.744    |c| =      20.744
 CELL| Angle (b,c), alpha [degree]:                                       90.000
 CELL| Angle (a,c), beta  [degree]:                                       90.000
 CELL| Angle (a,b), gamma [degree]:                                      120.000
 CELL| Numerically orthorhombic:                                              NO

 Number of electrons:                                                        144
 Number of occupied orbitals:                                                 72
 Number of molecular orbitals:                                               304

 Number of orbital functions:                                                304
 Number of independent orbital functions:                                    304

 Extrapolation method: initial_guess


 SCF WAVEFUNCTION OPTIMIZATION

  Step     Update method      Time    Convergence         Total energy    Change
  ------------------------------------------------------------------------------
     1 Pulay/Diag. 0.10E+00    1.6     2.02327787      -676.8799165443 -6.77E+02
     2 Pulay/Diag. 0.10E+00    2.3     0.04921787      -663.6136947660  1.33E+01
     3 Pulay/Diag. 0.10E+00    3.4     0.28951653      -668.0709732719 -4.46E+00
     4 Pulay/Diag. 0.10E+00    3.5     0.00474404      -675.4671839198 -7.40E+00
     5 Pulay/Diag. 0.10E+00    3.2     0.00160610      -675.4460834831  2.11E-02
     6 Pulay/Diag. 0.10E+00    3.2     0.00140063      -675.5267809463 -8.07E-02
     7 Pulay/Diag. 0.10E+00    3.3     0.00030066      -675.5443735916 -1.76E-02
     8 Pulay/Diag. 0.10E+00    3.1     0.00012401      -675.5467894041 -2.42E-03
     9 Pulay/Diag. 0.10E+00    3.7     0.00003063      -675.5466454248  1.44E-04
    10 Pulay/Diag. 0.10E+00    3.6     0.00001787      -675.5467785907 -1.33E-04
    11 Pulay/Diag. 0.10E+00    2.4     0.00001208      -675.5468699311 -9.13E-05
    12 Pulay/Diag. 0.10E+00    1.5     0.00000662      -675.5468508972  1.90E-05
    13 Pulay/Diag. 0.10E+00    1.5     0.00000401      -675.5468456739  5.22E-06
    14 Pulay/Diag. 0.10E+00    1.5     0.00000109      -675.5468359766  9.70E-06
    15 Pulay/Diag. 0.10E+00    1.5     0.00000034      -675.5468427879 -6.81E-06

  *** SCF run converged in    15 steps ***


  Electronic density on regular grids:       -143.9999999978        0.0000000022
  Core density on regular grids:              143.9999999999       -0.0000000001
  Total charge density on r-space grids:        0.0000000021
  Total charge density g-space grids:           0.0000000021

  Overlap energy of the core charge distribution:               0.00000007748007
  Self energy of the core charge distribution:               -977.15629455119449
  Core Hamiltonian energy:                                    293.45376453616223
  Hartree energy:                                             109.76922519134291
  Exchange-correlation energy:                               -101.51445689427609
  Dispersion energy:                                           -0.09908114744309

  Total energy:                                              -675.54684278792854

 ENERGY| Total FORCE_EVAL ( QS ) energy (a.u.):             -675.546842738221130


 --------  Informations at step =    11 ------------
  Optimization Method        =                 BFGS
  Total Energy               =      -675.5468427382
  Internal Pressure [bar]    =    -18332.7021839830
  Real energy change         =         0.0001025842
  Predicted change in energy =        -0.0000691201
  Scaling factor             =         0.0000000000
  Step size                  =         0.0285411380
  Trust radius               =         0.4724315332
  Decrease in energy         =                   NO
  Used time                  =               43.014

  Convergence check :
  Max. step size             =         0.0285411380
  Conv. limit for step size  =         0.0030000000
  Convergence in step size   =                   NO
  RMS step size              =         0.0137064991
  Conv. limit for RMS step   =         0.0015000000
  Convergence in RMS step    =                   NO
  Max. gradient              =         0.0058522623
  Conv. limit for gradients  =         0.0004500000
  Conv. for gradients        =                   NO
  RMS gradient               =         0.0022118945
  Conv. limit for RMS grad.  =         0.0003000000
  Conv. for gradients        =                   NO
  Pressure Deviation [bar]   =    -18333.7021839830
  Pressure Tolerance [bar]   =       100.0000000000
  Conv. for  PRESSURE        =                   NO
 ---------------------------------------------------

 --------------------------
 OPTIMIZATION STEP:     12
 --------------------------

 CELL| Volume [angstrom^3]:                                              175.627
 CELL| Vector a [angstrom]:       3.127     0.000     0.000    |a| =       3.127
 CELL| Vector b [angstrom]:      -1.563     2.708     0.000    |b| =       3.127
 CELL| Vector c [angstrom]:       0.000     0.000    20.744    |c| =      20.744
 CELL| Angle (b,c), alpha [degree]:                                       90.000
 CELL| Angle (a,c), beta  [degree]:                                       90.000
 CELL| Angle (a,b), gamma [degree]:                                      120.000
 CELL| Numerically orthorhombic:                                              NO

 Number of electrons:                                                        144
 Number of occupied orbitals:                                                 72
 Number of molecular orbitals:                                               304

 Number of orbital functions:                                                304
 Number of independent orbital functions:                                    304

 Extrapolation method: initial_guess


 SCF WAVEFUNCTION OPTIMIZATION

  Step     Update method      Time    Convergence         Total energy    Change
  ------------------------------------------------------------------------------
     1 Pulay/Diag. 0.10E+00    1.2     2.02316068      -676.8799972114 -6.77E+02
     2 Pulay/Diag. 0.10E+00    1.5     0.04916830      -663.6149552529  1.33E+01
     3 Pulay/Diag. 0.10E+00    1.8     0.28908968      -668.0718231920 -4.46E+00
     4 Pulay/Diag. 0.10E+00    1.5     0.00463796      -675.4674753499 -7.40E+00
     5 Pulay/Diag. 0.10E+00    1.5     0.00160569      -675.4462864115  2.12E-02
     6 Pulay/Diag. 0.10E+00    1.5     0.00138796      -675.5269600640 -8.07E-02
     7 Pulay/Diag. 0.10E+00    1.6     0.00029963      -675.5445388794 -1.76E-02
     8 Pulay/Diag. 0.10E+00    1.5     0.00011932      -675.5469440173 -2.41E-03
     9 Pulay/Diag. 0.10E+00    1.5     0.00003047      -675.5467987056  1.45E-04
    10 Pulay/Diag. 0.10E+00    1.5     0.00001529      -675.5469329462 -1.34E-04
    11 Pulay/Diag. 0.10E+00    1.5     0.00000979      -675.5470237086 -9.08E-05
    12 Pulay/Diag. 0.10E+00    1.9     0.00000526      -675.5470057775  1.79E-05
    13 Pulay/Diag. 0.10E+00    1.5     0.00000361      -675.5470016365  4.14E-06
    14 Pulay/Diag. 0.10E+00    1.5     0.00000118      -675.5469930276  8.61E-06
    15 Pulay/Diag. 0.10E+00    1.5     0.00000037      -675.5469991590 -6.13E-06

  *** SCF run converged in    15 steps ***


  Electronic density on regular grids:       -143.9999999978        0.0000000022
  Core density on regular grids:              143.9999999999       -0.0000000001
  Total charge density on r-space grids:        0.0000000021
  Total charge density g-space grids:           0.0000000021

  Overlap energy of the core charge distribution:               0.00000007691141
  Self energy of the core charge distribution:               -977.15629455119449
  Core Hamiltonian energy:                                    293.45286868017695
  Hartree energy:                                             109.76973852710314
  Exchange-correlation energy:                               -101.51421591230911
  Dispersion energy:                                           -0.09909597966665

  Total energy:                                              -675.54699915897879

 ENERGY| Total FORCE_EVAL ( QS ) energy (a.u.):             -675.546999101881966


 --------  Informations at step =    12 ------------
  Optimization Method        =                 BFGS
  Total Energy               =      -675.5469991019
  Internal Pressure [bar]    =    -18396.6159990896
  Real energy change         =        -0.0001563637
  Predicted change in energy =        -0.0001401190
  Scaling factor             =         0.0000000000
  Step size                  =         0.0188609770
  Trust radius               =         0.4724315332
  Decrease in energy         =                  YES
  Used time                  =               26.701

  Convergence check :
  Max. step size             =         0.0188609770
  Conv. limit for step size  =         0.0030000000
  Convergence in step size   =                   NO
  RMS step size              =         0.0089247566
  Conv. limit for RMS step   =         0.0015000000
  Convergence in RMS step    =                   NO
  Max. gradient              =         0.0030492541
  Conv. limit for gradients  =         0.0004500000
  Conv. for gradients        =                   NO
  RMS gradient               =         0.0012762553
  Conv. limit for RMS grad.  =         0.0003000000
  Conv. for gradients        =                   NO
  Pressure Deviation [bar]   =    -18397.6159990896
  Pressure Tolerance [bar]   =       100.0000000000
  Conv. for  PRESSURE        =                   NO
 ---------------------------------------------------

 --------------------------
 OPTIMIZATION STEP:     13
 --------------------------

 CELL| Volume [angstrom^3]:                                              175.634
 CELL| Vector a [angstrom]:       3.127     0.000     0.000    |a| =       3.127
 CELL| Vector b [angstrom]:      -1.563     2.708     0.000    |b| =       3.127
 CELL| Vector c [angstrom]:       0.000     0.000    20.744    |c| =      20.744
 CELL| Angle (b,c), alpha [degree]:                                       90.000
 CELL| Angle (a,c), beta  [degree]:                                       90.000
 CELL| Angle (a,b), gamma [degree]:                                      120.000
 CELL| Numerically orthorhombic:                                              NO

 Number of electrons:                                                        144
 Number of occupied orbitals:                                                 72
 Number of molecular orbitals:                                               304

 Number of orbital functions:                                                304
 Number of independent orbital functions:                                    304

 Extrapolation method: initial_guess


 SCF WAVEFUNCTION OPTIMIZATION

  Step     Update method      Time    Convergence         Total energy    Change
  ------------------------------------------------------------------------------
     1 Pulay/Diag. 0.10E+00    1.2     2.02315696      -676.8797608137 -6.77E+02
     2 Pulay/Diag. 0.10E+00    1.5     0.04916080      -663.6152216886  1.33E+01
     3 Pulay/Diag. 0.10E+00    1.5     0.28909009      -668.0719275113 -4.46E+00
     4 Pulay/Diag. 0.10E+00    1.5     0.00463659      -675.4675159224 -7.40E+00
     5 Pulay/Diag. 0.10E+00    1.9     0.00158239      -675.4463076565  2.12E-02
     6 Pulay/Diag. 0.10E+00    1.5     0.00138672      -675.5270415869 -8.07E-02
     7 Pulay/Diag. 0.10E+00    1.5     0.00028958      -675.5446801441 -1.76E-02
     8 Pulay/Diag. 0.10E+00    1.6     0.00010690      -675.5469932625 -2.31E-03
     9 Pulay/Diag. 0.10E+00    2.1     0.00003105      -675.5468213550  1.72E-04
    10 Pulay/Diag. 0.10E+00    3.4     0.00001425      -675.5469728146 -1.51E-04
    11 Pulay/Diag. 0.10E+00    3.9     0.00000801      -675.5470569874 -8.42E-05
    12 Pulay/Diag. 0.10E+00    3.8     0.00000425      -675.5470395756  1.74E-05
    13 Pulay/Diag. 0.10E+00    3.6     0.00000313      -675.5470362637  3.31E-06
    14 Pulay/Diag. 0.10E+00    3.3     0.00000122      -675.5470285273  7.74E-06
    15 Pulay/Diag. 0.10E+00    3.8     0.00000039      -675.5470340385 -5.51E-06

  *** SCF run converged in    15 steps ***


  Electronic density on regular grids:       -143.9999999978        0.0000000022
  Core density on regular grids:              143.9999999999       -0.0000000001
  Total charge density on r-space grids:        0.0000000021
  Total charge density g-space grids:           0.0000000021

  Overlap energy of the core charge distribution:               0.00000007683120
  Self energy of the core charge distribution:               -977.15629455119449
  Core Hamiltonian energy:                                    293.45215285382943
  Hartree energy:                                             109.77018558118920
  Exchange-correlation energy:                               -101.51398659812928
  Dispersion energy:                                           -0.09909140100048

  Total energy:                                              -675.54703403847441

 ENERGY| Total FORCE_EVAL ( QS ) energy (a.u.):             -675.547033977142974


 --------  Informations at step =    13 ------------
  Optimization Method        =                 BFGS
  Total Energy               =      -675.5470339771
  Internal Pressure [bar]    =    -18503.8407305619
  Real energy change         =        -0.0000348753
  Predicted change in energy =        -0.0000188760
  Scaling factor             =         0.0000000000
  Step size                  =         0.0014956761
  Trust radius               =         0.4724315332
  Decrease in energy         =                  YES
  Used time                  =               40.990

  Convergence check :
  Max. step size             =         0.0014956761
  Conv. limit for step size  =         0.0030000000
  Convergence in step size   =                  YES
  RMS step size              =         0.0006426014
  Conv. limit for RMS step   =         0.0015000000
  Convergence in RMS step    =                  YES
  Max. gradient              =         0.0025382772
  Conv. limit for gradients  =         0.0004500000
  Conv. for gradients        =                   NO
  RMS gradient               =         0.0010928162
  Conv. limit for RMS grad.  =         0.0003000000
  Conv. for gradients        =                   NO
  Pressure Deviation [bar]   =    -18504.8407305619
  Pressure Tolerance [bar]   =       100.0000000000
  Conv. for  PRESSURE        =                   NO
 ---------------------------------------------------

 --------------------------
 OPTIMIZATION STEP:     14
 --------------------------

 CELL| Volume [angstrom^3]:                                              175.655
 CELL| Vector a [angstrom]:       3.127     0.000     0.000    |a| =       3.127
 CELL| Vector b [angstrom]:      -1.563     2.708     0.000    |b| =       3.127
 CELL| Vector c [angstrom]:       0.000     0.000    20.744    |c| =      20.744
 CELL| Angle (b,c), alpha [degree]:                                       90.000
 CELL| Angle (a,c), beta  [degree]:                                       90.000
 CELL| Angle (a,b), gamma [degree]:                                      120.000
 CELL| Numerically orthorhombic:                                              NO

 Number of electrons:                                                        144
 Number of occupied orbitals:                                                 72
 Number of molecular orbitals:                                               304

 Number of orbital functions:                                                304
 Number of independent orbital functions:                                    304

 Extrapolation method: initial_guess


 SCF WAVEFUNCTION OPTIMIZATION

  Step     Update method      Time    Convergence         Total energy    Change
  ------------------------------------------------------------------------------
     1 Pulay/Diag. 0.10E+00    4.2     2.02317494      -676.8790460992 -6.77E+02
     2 Pulay/Diag. 0.10E+00    3.6     0.04920340      -663.6166365593  1.33E+01
     3 Pulay/Diag. 0.10E+00    3.7     0.28911364      -668.0726171661 -4.46E+00
     4 Pulay/Diag. 0.10E+00    4.3     0.00466048      -675.4678373776 -7.40E+00
     5 Pulay/Diag. 0.10E+00    3.2     0.00159872      -675.4464534087  2.14E-02
     6 Pulay/Diag. 0.10E+00    3.8     0.00137473      -675.5271556711 -8.07E-02
     7 Pulay/Diag. 0.10E+00    3.7     0.00029335      -675.5447732411 -1.76E-02
     8 Pulay/Diag. 0.10E+00    2.7     0.00010563      -675.5471261490 -2.35E-03
     9 Pulay/Diag. 0.10E+00    1.5     0.00003302      -675.5469633247  1.63E-04
    10 Pulay/Diag. 0.10E+00    1.6     0.00001156      -675.5471058889 -1.43E-04
    11 Pulay/Diag. 0.10E+00    1.5     0.00000457      -675.5471910506 -8.52E-05
    12 Pulay/Diag. 0.10E+00    1.5     0.00000213      -675.5471736132  1.74E-05
    13 Pulay/Diag. 0.10E+00    1.5     0.00000160      -675.5471727262  8.87E-07
    14 Pulay/Diag. 0.10E+00    1.5     0.00000105      -675.5471673640  5.36E-06
    15 Pulay/Diag. 0.10E+00    1.8     0.00000051      -675.5471705399 -3.18E-06

  *** SCF run converged in    15 steps ***


[...]
  Pressure Deviation [bar]   =    -18527.1232532929
  Pressure Tolerance [bar]   =       100.0000000000
  Conv. for  PRESSURE        =                   NO
 ---------------------------------------------------

 --------------------------
 OPTIMIZATION STEP:     44
 --------------------------

 CELL| Volume [angstrom^3]:                                              175.616
 CELL| Vector a [angstrom]:       3.127     0.000     0.000    |a| =       3.127
 CELL| Vector b [angstrom]:      -1.563     2.708     0.000    |b| =       3.127
 CELL| Vector c [angstrom]:       0.000     0.000    20.744    |c| =      20.744
 CELL| Angle (b,c), alpha [degree]:                                       90.000
 CELL| Angle (a,c), beta  [degree]:                                       90.000
 CELL| Angle (a,b), gamma [degree]:                                      120.000
 CELL| Numerically orthorhombic:                                              NO

 Number of electrons:                                                        144
 Number of occupied orbitals:                                                 72
 Number of molecular orbitals:                                               304

 Number of orbital functions:                                                304
 Number of independent orbital functions:                                    304

 Extrapolation method: initial_guess


 SCF WAVEFUNCTION OPTIMIZATION

  Step     Update method      Time    Convergence         Total energy    Change
  ------------------------------------------------------------------------------
     1 Pulay/Diag. 0.10E+00    3.4     2.02307788      -676.8804614687 -6.77E+02
     2 Pulay/Diag. 0.10E+00    4.7     0.04913561      -663.6155818259  1.33E+01
     3 Pulay/Diag. 0.10E+00    4.4     0.28887871      -668.0723992060 -4.46E+00
     4 Pulay/Diag. 0.10E+00    3.6     0.00455348      -675.4678499396 -7.40E+00
     5 Pulay/Diag. 0.10E+00    3.3     0.00149457      -675.4465242928  2.13E-02
     6 Pulay/Diag. 0.10E+00    3.9     0.00137019      -675.5273702281 -8.08E-02
     7 Pulay/Diag. 0.10E+00    3.8     0.00024075      -675.5451103165 -1.77E-02
     8 Pulay/Diag. 0.10E+00    3.6     0.00002762      -675.5471778141 -2.07E-03
     9 Pulay/Diag. 0.10E+00    1.7     0.00000929      -675.5470255826  1.52E-04
    10 Pulay/Diag. 0.10E+00    1.6     0.00000368      -675.5472738763 -2.48E-04
    11 Pulay/Diag. 0.10E+00    1.6     0.00000219      -675.5472467208  2.72E-05
    12 Pulay/Diag. 0.10E+00    2.0     0.00000055      -675.5472477260 -1.01E-06

  *** SCF run converged in    12 steps ***


  Electronic density on regular grids:       -143.9999999978        0.0000000022
  Core density on regular grids:              143.9999999999       -0.0000000001
  Total charge density on r-space grids:        0.0000000021
  Total charge density g-space grids:           0.0000000021

  Overlap energy of the core charge distribution:               0.00000007658968
  Self energy of the core charge distribution:               -977.15629455119449
  Core Hamiltonian energy:                                    293.45298364470199
  Hartree energy:                                             109.76960999515734
  Exchange-correlation energy:                               -101.51443832112960
  Dispersion energy:                                           -0.09910857013719

  Total energy:                                              -675.54724772601242

 ENERGY| Total FORCE_EVAL ( QS ) energy (a.u.):             -675.547244336560198


 --------  Informations at step =    44 ------------
  Optimization Method        =                 BFGS
  Total Energy               =      -675.5472443366
  Internal Pressure [bar]    =    -18526.1311325361
  Real energy change         =         0.0000000000
  Predicted change in energy =        -0.0000000000
  Scaling factor             =         0.0000000000
  Step size                  =         0.0000009430
  Trust radius               =         0.4724315332
  Decrease in energy         =                   NO
  Used time                  =               41.783

  Convergence check :
  Max. step size             =         0.0000009430
  Conv. limit for step size  =         0.0030000000
  Convergence in step size   =                  YES
  RMS step size              =         0.0000003505
  Conv. limit for RMS step   =         0.0015000000
  Convergence in RMS step    =                  YES
  Max. gradient              =         0.0000000751
  Conv. limit for gradients  =         0.0004500000
  Conv. in gradients         =                  YES
  RMS gradient               =         0.0000000289
  Conv. limit for RMS grad.  =         0.0003000000
  Conv. in RMS gradients     =                  YES
  Pressure Deviation [bar]   =    -18527.1311325361
  Pressure Tolerance [bar]   =       100.0000000000
  Conv. for  PRESSURE        =                   NO
 ---------------------------------------------------

 --------------------------
 OPTIMIZATION STEP:     45
 --------------------------

 CELL| Volume [angstrom^3]:                                              175.616
 CELL| Vector a [angstrom]:       3.127     0.000     0.000    |a| =       3.127
 CELL| Vector b [angstrom]:      -1.563     2.708     0.000    |b| =       3.127
 CELL| Vector c [angstrom]:       0.000     0.000    20.744    |c| =      20.744
 CELL| Angle (b,c), alpha [degree]:                                       90.000
 CELL| Angle (a,c), beta  [degree]:                                       90.000
 CELL| Angle (a,b), gamma [degree]:                                      120.000
 CELL| Numerically orthorhombic:                                              NO

 Number of electrons:                                                        144
 Number of occupied orbitals:                                                 72
 Number of molecular orbitals:                                               304

 Number of orbital functions:                                                304
 Number of independent orbital functions:                                    304

 Extrapolation method: initial_guess


 SCF WAVEFUNCTION OPTIMIZATION

  Step     Update method      Time    Convergence         Total energy    Change
  ------------------------------------------------------------------------------
     1 Pulay/Diag. 0.10E+00    1.3     2.02307789      -676.8804614512 -6.77E+02
     2 Pulay/Diag. 0.10E+00    1.6     0.04913561      -663.6155818302  1.33E+01
     3 Pulay/Diag. 0.10E+00    1.6     0.28887870      -668.0723992037 -4.46E+00
     4 Pulay/Diag. 0.10E+00    1.6     0.00455348      -675.4678499375 -7.40E+00
     5 Pulay/Diag. 0.10E+00    1.6     0.00149456      -675.4465242914  2.13E-02
     6 Pulay/Diag. 0.10E+00    1.6     0.00137019      -675.5273702278 -8.08E-02
     7 Pulay/Diag. 0.10E+00    2.0     0.00024075      -675.5451103165 -1.77E-02
     8 Pulay/Diag. 0.10E+00    1.6     0.00002762      -675.5471778141 -2.07E-03
     9 Pulay/Diag. 0.10E+00    1.6     0.00000929      -675.5470255827  1.52E-04
    10 Pulay/Diag. 0.10E+00    1.6     0.00000367      -675.5472738762 -2.48E-04
    11 Pulay/Diag. 0.10E+00    1.6     0.00000219      -675.5472467207  2.72E-05
    12 Pulay/Diag. 0.10E+00    1.5     0.00000055      -675.5472477261 -1.01E-06

  *** SCF run converged in    12 steps ***


  Electronic density on regular grids:       -143.9999999978        0.0000000022
  Core density on regular grids:              143.9999999999       -0.0000000001
  Total charge density on r-space grids:        0.0000000021
  Total charge density g-space grids:           0.0000000021

  Overlap energy of the core charge distribution:               0.00000007658968
  Self energy of the core charge distribution:               -977.15629455119449
  Core Hamiltonian energy:                                    293.45298360802872
  Hartree energy:                                             109.76961001822568
  Exchange-correlation energy:                               -101.51443830815664
  Dispersion energy:                                           -0.09910856959817

  Total energy:                                              -675.54724772610518

 ENERGY| Total FORCE_EVAL ( QS ) energy (a.u.):             -675.547244336560198


 --------  Informations at step =    45 ------------
  Optimization Method        =                 BFGS
  Total Energy               =      -675.5472443366
  Internal Pressure [bar]    =    -18526.1401645625
  Real energy change         =         0.0000000000
  Predicted change in energy =        -0.0000000000
  Scaling factor             =         0.0000000000
  Step size                  =         0.0000015808
  Trust radius               =         0.4724315332
  Decrease in energy         =                   NO
  Used time                  =               22.840

  Convergence check :
  Max. step size             =         0.0000015808
  Conv. limit for step size  =         0.0030000000
  Convergence in step size   =                  YES
  RMS step size              =         0.0000004950
  Conv. limit for RMS step   =         0.0015000000
  Convergence in RMS step    =                  YES
  Max. gradient              =         0.0000000969
  Conv. limit for gradients  =         0.0004500000
  Conv. in gradients         =                  YES
  RMS gradient               =         0.0000000325
  Conv. limit for RMS grad.  =         0.0003000000
  Conv. in RMS gradients     =                  YES
  Pressure Deviation [bar]   =    -18527.1401645625
  Pressure Tolerance [bar]   =       100.0000000000
  Conv. for  PRESSURE        =                   NO
 ---------------------------------------------------

 --------------------------
 OPTIMIZATION STEP:     46
 --------------------------

 CELL| Volume [angstrom^3]:                                              175.616
 CELL| Vector a [angstrom]:       3.127     0.000     0.000    |a| =       3.127
 CELL| Vector b [angstrom]:      -1.563     2.708     0.000    |b| =       3.127
 CELL| Vector c [angstrom]:       0.000     0.000    20.744    |c| =      20.744
 CELL| Angle (b,c), alpha [degree]:                                       90.000
 CELL| Angle (a,c), beta  [degree]:                                       90.000
 CELL| Angle (a,b), gamma [degree]:                                      120.000
 CELL| Numerically orthorhombic:                                              NO

 Number of electrons:                                                        144
 Number of occupied orbitals:                                                 72
 Number of molecular orbitals:                                               304

 Number of orbital functions:                                                304
 Number of independent orbital functions:                                    304

 Extrapolation method: initial_guess


 SCF WAVEFUNCTION OPTIMIZATION

  Step     Update method      Time    Convergence         Total energy    Change
  ------------------------------------------------------------------------------
     1 Pulay/Diag. 0.10E+00    1.3     2.02307789      -676.8804614416 -6.77E+02
     2 Pulay/Diag. 0.10E+00    2.1     0.04913561      -663.6155818327  1.33E+01
     3 Pulay/Diag. 0.10E+00    1.5     0.28887870      -668.0723992025 -4.46E+00
     4 Pulay/Diag. 0.10E+00    1.6     0.00455349      -675.4678499362 -7.40E+00
     5 Pulay/Diag. 0.10E+00    1.6     0.00149456      -675.4465242905  2.13E-02
     6 Pulay/Diag. 0.10E+00    1.5     0.00137019      -675.5273702277 -8.08E-02
     7 Pulay/Diag. 0.10E+00    1.6     0.00024075      -675.5451103165 -1.77E-02
     8 Pulay/Diag. 0.10E+00    1.6     0.00002762      -675.5471778141 -2.07E-03
     9 Pulay/Diag. 0.10E+00    1.6     0.00000929      -675.5470255827  1.52E-04
    10 Pulay/Diag. 0.10E+00    1.6     0.00000367      -675.5472738762 -2.48E-04
    11 Pulay/Diag. 0.10E+00    2.1     0.00000219      -675.5472467206  2.72E-05
    12 Pulay/Diag. 0.10E+00    1.6     0.00000055      -675.5472477261 -1.01E-06

  *** SCF run converged in    12 steps ***


  Electronic density on regular grids:       -143.9999999978        0.0000000022
  Core density on regular grids:              143.9999999999       -0.0000000001
  Total charge density on r-space grids:        0.0000000021
  Total charge density g-space grids:           0.0000000021

  Overlap energy of the core charge distribution:               0.00000007658968
  Self energy of the core charge distribution:               -977.15629455119449
  Core Hamiltonian energy:                                    293.45298358783447
  Hartree energy:                                             109.76961003098020
  Exchange-correlation energy:                               -101.51443830101807
  Dispersion energy:                                           -0.09910856929494

  Total energy:                                              -675.54724772610314

 ENERGY| Total FORCE_EVAL ( QS ) energy (a.u.):             -675.547244336560880


 --------  Informations at step =    46 ------------
  Optimization Method        =                 BFGS
  Total Energy               =      -675.5472443366
  Internal Pressure [bar]    =    -18526.1462036557
  Real energy change         =        -0.0000000000
  Predicted change in energy =        -0.0000000000
  Scaling factor             =         0.0000000000
  Step size                  =         0.0000021524
  Trust radius               =         0.4724315332
  Decrease in energy         =                   NO
  Used time                  =               23.201

  Convergence check :
  Max. step size             =         0.0000021524
  Conv. limit for step size  =         0.0030000000
  Convergence in step size   =                  YES
  RMS step size              =         0.0000006101
  Conv. limit for RMS step   =         0.0015000000
  Convergence in RMS step    =                  YES
  Max. gradient              =         0.0000001277
  Conv. limit for gradients  =         0.0004500000
  Conv. in gradients         =                  YES
  RMS gradient               =         0.0000000405
  Conv. limit for RMS grad.  =         0.0003000000
  Conv. in RMS gradients     =                  YES
  Pressure Deviation [bar]   =    -18527.1462036557
  Pressure Tolerance [bar]   =       100.0000000000
  Conv. for  PRESSURE        =                   NO
 ---------------------------------------------------

 --------------------------
 OPTIMIZATION STEP:     47
 --------------------------

 CELL| Volume [angstrom^3]:                                              175.616
 CELL| Vector a [angstrom]:       3.127     0.000     0.000    |a| =       3.127
 CELL| Vector b [angstrom]:      -1.563     2.708     0.000    |b| =       3.127
 CELL| Vector c [angstrom]:       0.000     0.000    20.744    |c| =      20.744
 CELL| Angle (b,c), alpha [degree]:                                       90.000
 CELL| Angle (a,c), beta  [degree]:                                       90.000
 CELL| Angle (a,b), gamma [degree]:                                      120.000
 CELL| Numerically orthorhombic:                                              NO

 Number of electrons:                                                        144
 Number of occupied orbitals:                                                 72
 Number of molecular orbitals:                                               304

 Number of orbital functions:                                                304
 Number of independent orbital functions:                                    304

 Extrapolation method: initial_guess


 SCF WAVEFUNCTION OPTIMIZATION

  Step     Update method      Time    Convergence         Total energy    Change
  ------------------------------------------------------------------------------
     1 Pulay/Diag. 0.10E+00    1.3     2.02307789      -676.8804614523 -6.77E+02
     2 Pulay/Diag. 0.10E+00    1.6     0.04913561      -663.6155818309  1.33E+01
     3 Pulay/Diag. 0.10E+00    1.6     0.28887870      -668.0723992040 -4.46E+00
     4 Pulay/Diag. 0.10E+00    1.6     0.00455349      -675.4678499371 -7.40E+00
     5 Pulay/Diag. 0.10E+00    1.6     0.00149456      -675.4465242913  2.13E-02
     6 Pulay/Diag. 0.10E+00    2.0     0.00137019      -675.5273702280 -8.08E-02
     7 Pulay/Diag. 0.10E+00    1.6     0.00024075      -675.5451103165 -1.77E-02
     8 Pulay/Diag. 0.10E+00    1.6     0.00002762      -675.5471778141 -2.07E-03
     9 Pulay/Diag. 0.10E+00    1.6     0.00000929      -675.5470255826  1.52E-04
    10 Pulay/Diag. 0.10E+00    1.6     0.00000367      -675.5472738763 -2.48E-04
    11 Pulay/Diag. 0.10E+00    1.6     0.00000219      -675.5472467209  2.72E-05
    12 Pulay/Diag. 0.10E+00    1.6     0.00000055      -675.5472477259 -1.01E-06

  *** SCF run converged in    12 steps ***


  Electronic density on regular grids:       -143.9999999978        0.0000000022
  Core density on regular grids:              143.9999999999       -0.0000000001
  Total charge density on r-space grids:        0.0000000021
  Total charge density g-space grids:           0.0000000021

  Overlap energy of the core charge distribution:               0.00000007658968
  Self energy of the core charge distribution:               -977.15629455119449
  Core Hamiltonian energy:                                    293.45298361011453
  Hartree energy:                                             109.76961001709597
  Exchange-correlation energy:                               -101.51443830892116
  Dispersion energy:                                           -0.09910856961892

  Total energy:                                              -675.54724772593443

 ENERGY| Total FORCE_EVAL ( QS ) energy (a.u.):             -675.547244336561448


 --------  Informations at step =    47 ------------
  Optimization Method        =                 BFGS
  Total Energy               =      -675.5472443366
  Internal Pressure [bar]    =    -18526.1426606596
  Real energy change         =        -0.0000000000
  Predicted change in energy =        -0.0000000000
  Scaling factor             =         0.0000000000
  Step size                  =         0.0000025358
  Trust radius               =         0.4724315332
  Decrease in energy         =                   NO
  Used time                  =               22.710

  Convergence check :
  Max. step size             =         0.0000025358
  Conv. limit for step size  =         0.0030000000
  Convergence in step size   =                  YES
  RMS step size              =         0.0000007620
  Conv. limit for RMS step   =         0.0015000000
  Convergence in RMS step    =                  YES
  Max. gradient              =         0.0000001258
  Conv. limit for gradients  =         0.0004500000
  Conv. in gradients         =                  YES
  RMS gradient               =         0.0000000470
  Conv. limit for RMS grad.  =         0.0003000000
  Conv. in RMS gradients     =                  YES
  Pressure Deviation [bar]   =    -18527.1426606596
  Pressure Tolerance [bar]   =       100.0000000000
  Conv. for  PRESSURE        =                   NO
 ---------------------------------------------------

 --------------------------
 OPTIMIZATION STEP:     48
 --------------------------

 CELL| Volume [angstrom^3]:                                              175.616
 CELL| Vector a [angstrom]:       3.127     0.000     0.000    |a| =       3.127
 CELL| Vector b [angstrom]:      -1.563     2.708     0.000    |b| =       3.127
 CELL| Vector c [angstrom]:       0.000     0.000    20.744    |c| =      20.744
 CELL| Angle (b,c), alpha [degree]:                                       90.000
 CELL| Angle (a,c), beta  [degree]:                                       90.000
 CELL| Angle (a,b), gamma [degree]:                                      120.000
 CELL| Numerically orthorhombic:                                              NO
