      16
 i =        1, E =      -673.2572595150
 Ga         0.0005781871       -0.0003336617        0.1437536084
  N         0.0001611741        1.9206155162        0.5760967822
 Ga         0.0007555206        1.9202712108        2.6074711500
  N         0.0003858156       -0.0002229748        3.2293195359
 Ga         0.0001481111       -0.0000822055        5.1434680243
  N         0.0006387574        1.9203345220        5.8098814950
 Ga         0.0007319869        1.9202686166        7.7666825023
  N         0.0001924586       -0.0000639371        8.3985348223
 Ga         0.0000977823       -0.0001763935       10.3617234613
  N         0.0008173761        1.9200589220       10.9784016126
 Ga         0.0010182274        1.9212876464       12.9527408862
  N        -0.0001915003       -0.0005683182       13.5628530593
 Ga         0.0001819105        0.0007327722       15.5340509349
  N         0.0009561454        1.9192974094       16.1449807021
 Ga         0.0009318923        1.9202662898       18.3505234233
  N        -0.0002031443       -0.0001753215       18.8011267984
      16
 i =        2, E =      -638.7726268539
 Ga         0.0012949816       -0.0009110377        0.1902273975
  N         0.0001819031        2.0638555620        0.5823731653
 Ga         0.0013052812        2.0632755076        2.6161448215
  N         0.0011935230       -0.0005248278        3.2745633954
 Ga         0.0004986195       -0.0003539107        5.0763448881
  N         0.0010179582        2.0632170779        5.8322014885
 Ga         0.0014900982        2.0632174610        7.7171138731
  N         0.0005610274       -0.0002767506        8.4056841080
 Ga         0.0003006621       -0.0005431298       10.3297692614
  N         0.0015505351        2.0628093144       10.9555084345
 Ga         0.0019563571        2.0646783066       12.9286644457
  N        -0.0002619971       -0.0009606331       13.5071134984
 Ga         0.0004200694        0.0005867084       15.5479194669
  N         0.0020893635        2.0619483782       16.0920168702
 Ga         0.0016538422        2.0635371102       18.4995854286
  N        -0.0002013932       -0.0007384589       18.8093859959
      16
 i =        1, E =      -675.5455753274
 Ga         0.0001395725       -0.0000805814        0.0003946503
  N        -0.0000199138        1.8183210655        0.6436629557
 Ga         0.0000286549        1.8182930244        2.5933944513
  N         0.0000346135       -0.0000199836        3.2366610768
 Ga         0.0001395098       -0.0000805451        5.1863932709
  N        -0.0000199134        1.8183210656        5.8296636317
 Ga         0.0000287183        1.8182929875        7.7793950966
  N         0.0000344869       -0.0000199107        8.4226614920
 Ga         0.0001392251       -0.0000803808       10.3723946849
  N        -0.0000198597        1.8183210347       11.0156627603
 Ga         0.0000290803        1.8182927786       12.9653949513
  N         0.0000345757       -0.0000199620       13.6086616706
 Ga         0.0001395477       -0.0000805672       15.5583940578
  N        -0.0000198757        1.8183210437       16.2016640631
 Ga         0.0000286806        1.8182930094       18.1513960458
  N         0.0000346191       -0.0000199868       18.7946618299
      16
 i =        2, E =      -675.5465714309
 Ga         0.0002969179       -0.0001714235       -0.0015663405
  N        -0.0000177515        1.8066009383        0.6455060744
 Ga         0.0001337273        1.8065134817        2.5914134177
  N         0.0000897839       -0.0000518364        3.2384894025
 Ga         0.0002967705       -0.0001713385        5.1844308257
  N        -0.0000176785        1.8066008978        5.8315072894
 Ga         0.0001343584        1.8065131172        7.7774151340
  N         0.0000894931       -0.0000516695        8.4244898859
 Ga         0.0002960333       -0.0001709130       10.3704352651
  N        -0.0000176000        1.8066008532       11.0175068927
 Ga         0.0001341535        1.8065132354       12.9634148265
  N         0.0000897863       -0.0000518390       13.6104907175
 Ga         0.0002968676       -0.0001713947       15.5564325611
  N        -0.0000177303        1.8066009278       16.2035085307
 Ga         0.0001337191        1.8065134862       18.1494166547
  N         0.0000898028       -0.0000518469       18.7964917289
      16
 i =        3, E =      -675.5466915561
 Ga         0.0003962855       -0.0002287917       -0.0032024467
  N         0.0000085679        1.8061768336        0.6472790401
 Ga         0.0002207910        1.8060543064        2.5899776131
  N         0.0001391901       -0.0000803581        3.2402756078
 Ga         0.0003961943       -0.0002287393        5.1827937095
  N         0.0000086133        1.8061768091        5.8332805299
 Ga         0.0002213743        1.8060539699        7.7759794048
  N         0.0001388885       -0.0000801856        8.4262770970
 Ga         0.0003951069       -0.0002281114       10.3687987942
  N         0.0000086431        1.8061767926       11.0192798219
 Ga         0.0002216203        1.8060538279       12.9619792237
  N         0.0001392174       -0.0000803758       13.6122776712
 Ga         0.0003962637       -0.0002287795       15.5547963016
  N         0.0000086179        1.8061768070       16.2052823786
 Ga         0.0002208140        1.8060542928       18.1479815731
  N         0.0001392103       -0.0000803696       18.7982788793
      16
 i =        4, E =      -675.5468735297
 Ga         0.0009664349       -0.0005579781       -0.0094083840
  N         0.0001590180        1.8050959741        0.6529309490
 Ga         0.0005522122        1.8048689614        2.5868017150
  N         0.0003630226       -0.0002095987        3.2459397190
 Ga         0.0009666694       -0.0005581148        5.1765803625
  N         0.0001589894        1.8050959927        5.8389328115
 Ga         0.0005525911        1.8048687442        7.7728041531
  N         0.0003626553       -0.0002093903        8.4319444147
 Ga         0.0009636318       -0.0005563599       10.3625927851
  N         0.0001586810        1.8050961717       11.0249315194
 Ga         0.0005544819        1.8048676530       12.9588040837
  N         0.0003633590       -0.0002097975       13.6179445471
 Ga         0.0009666203       -0.0005580860       15.5485887954
  N         0.0001591834        1.8050958826       16.2109372375
 Ga         0.0005523537        1.8048688792       18.1448081040
  N         0.0003630602       -0.0002096216       18.8039463242
      16
 i =        5, E =      -675.5468830044
 Ga         0.0010613966       -0.0006128116       -0.0091692304
  N         0.0002340590        1.8052129936        0.6525516733
 Ga         0.0005842522        1.8050108062        2.5877270887
  N         0.0004114891       -0.0002375877        3.2454584299
 Ga         0.0010612853       -0.0006127488        5.1768233257
  N         0.0002340615        1.8052129941        5.8385527525
 Ga         0.0005845978        1.8050106082        7.7737296263
  N         0.0004110889       -0.0002373601        8.4314638831
 Ga         0.0010583967       -0.0006110799       10.3628312117
  N         0.0002335309        1.8052133016       11.0245523214
 Ga         0.0005865842        1.8050094618       12.9597295834
  N         0.0004120096       -0.0002378925       13.6174638921
 Ga         0.0010615083       -0.0006128769       15.5488298432
  N         0.0002342494        1.8052128876       16.2105577420
 Ga         0.0005844030        1.8050107185       18.1457335100
  N         0.0004115451       -0.0002376212       18.8034659642
      16
 i =        6, E =      -675.5468887263
 Ga         0.0014304060       -0.0008258749       -0.0097117644
  N         0.0004541368        1.8051007524        0.6527583637
 Ga         0.0007292955        1.8049418842        2.5888149533
  N         0.0005686236       -0.0003283211        3.2454063155
 Ga         0.0014296444       -0.0008254377        5.1762854385
  N         0.0004541119        1.8051007687        5.8387586633
 Ga         0.0007295282        1.8049417511        7.7748177007
  N         0.0005681321       -0.0003280408        8.4314127238
 Ga         0.0014265224       -0.0008236332       10.3622874114
  N         0.0004530616        1.8051013765       11.0247590396
 Ga         0.0007320459        1.8049402979       12.9608178382
  N         0.0005696329       -0.0003289082       13.6174130711
 Ga         0.0014304692       -0.0008259124       15.5482901064
  N         0.0004543864        1.8051006125       16.2107648657
 Ga         0.0007294912        1.8049417702       18.1468218555
  N         0.0005687347       -0.0003283869       18.8034153633
      16
 i =        7, E =      -675.5468903363
 Ga         0.0016872270       -0.0009741575       -0.0096949041
  N         0.0006216188        1.8049968885        0.6528891924
 Ga         0.0008311018        1.8048759381        2.5889806118
  N         0.0006722900       -0.0003881752        3.2453806548
 Ga         0.0016861865       -0.0009735599        5.1763025201
  N         0.0006214701        1.8049969759        5.8388898709
 Ga         0.0008312612        1.8048758471        7.7749833248
  N         0.0006717369       -0.0003878594        8.4313863536
 Ga         0.0016826999       -0.0009715445       10.3623039911
  N         0.0006201473        1.8049977414       11.0248897729
 Ga         0.0008341223        1.8048741957       12.9609836278
  N         0.0006736097       -0.0003889416       13.6173875688
 Ga         0.0016873848       -0.0009742497       15.5483073668
  N         0.0006218897        1.8049967363       16.2108962840
 Ga         0.0008313290        1.8048758056       18.1469877146
  N         0.0006724474       -0.0003882679       18.8033894535
      16
 i =        8, E =      -675.5447926675
 Ga         0.0487692388       -0.0281582281       -0.0050327588
  N         0.0313411820        1.7861576311        0.6762013696
 Ga         0.0193181165        1.7930991688        2.6147304400
  N         0.0194149505       -0.0112096663        3.2422094927
 Ga         0.0487177949       -0.0281286505        5.1809937647
  N         0.0313175656        1.7861712237        5.8622686502
 Ga         0.0193050534        1.7931066893        7.8007256356
  N         0.0194031444       -0.0112028572        8.4280887117
 Ga         0.0486467922       -0.0280875628       10.3669162045
  N         0.0312671865        1.7862003642       11.0481848527
 Ga         0.0193698655        1.7930692667       12.9867540273
  N         0.0194718436       -0.0112425224       13.6142433024
 Ga         0.0487881777       -0.0281691784       15.5530355223
  N         0.0313457655        1.7861549976       16.2343117738
 Ga         0.0193241682        1.7930956278       18.1727712005
  N         0.0194235601       -0.0112146796       18.8001729061
      16
 i =        9, E =      -675.5469176872
 Ga         0.0053212583       -0.0030723606       -0.0090716330
  N         0.0032617624        1.8034193151        0.6547368802
 Ga         0.0023603373        1.8039397543        2.5908512361
  N         0.0022543395       -0.0013016061        3.2452005334
 Ga         0.0053165661       -0.0030696636        5.1769272095
  N         0.0032594839        1.8034206282        5.8407429447
 Ga         0.0023594309        1.8039402768        7.7768530915
  N         0.0022528257       -0.0013007359        8.4311957116
 Ga         0.0053078705       -0.0030646338       10.3629243223
  N         0.0032540478        1.8034237730       11.0267359728
 Ga         0.0023672685        1.8039357518       12.9628560917
  N         0.0022602056       -0.0013049977       13.6172093977
 Ga         0.0053226650       -0.0030731749       15.5489350936
  N         0.0032624519        1.8034189218       16.2127522236
 Ga         0.0023610552        1.8039393345       18.1488615410
  N         0.0022551878       -0.0013021010       18.8032053874
      16
 i =       10, E =      -675.5469453224
 Ga         0.0089630441       -0.0051750407       -0.0081815420
  N         0.0058833972        1.8018651076        0.6564181231
 Ga         0.0038808917        1.8030212633        2.5925699414
  N         0.0038166723       -0.0022036531        3.2450647930
 Ga         0.0089549953       -0.0051704147        5.1778184840
  N         0.0058789936        1.8018676436        5.8424289429
 Ga         0.0038789272        1.8030223949        7.7785709737
  N         0.0038141541       -0.0022022035        8.4310503454
 Ga         0.0089412857       -0.0051624831       10.3638101362
  N         0.0058695344        1.8018731155       11.0284159189
 Ga         0.0038916556        1.8030150460       12.9645762173
  N         0.0038269894       -0.0022096149       13.6170756026
 Ga         0.0089659950       -0.0051767473       15.5498299464
  N         0.0058845244        1.8018644621       16.2144411108
 Ga         0.0038821059        1.8030205533       18.1505828416
  N         0.0038181988       -0.0022045429       18.8030662008
      16
 i =       11, E =      -675.5468427382
 Ga         0.0237781405       -0.0137289154       -0.0023472649
  N         0.0170145978        1.7953907350        0.6627308274
 Ga         0.0103174362        1.7992573881        2.5991309621
  N         0.0104240684       -0.0060185711        3.2444711037
 Ga         0.0237593492       -0.0137181228        5.1836548737
  N         0.0170012080        1.7953984416        5.8487601850
 Ga         0.0103109906        1.7992610996        7.7851285317
  N         0.0104169084       -0.0060144433        8.4304173920
 Ga         0.0237274082       -0.0136996369       10.3696216863
  N         0.0169750817        1.7954135552       11.0347231710
 Ga         0.0103441222        1.7992419699       12.9711417417
  N         0.0104531411       -0.0060353635       13.6164897005
 Ga         0.0237880731       -0.0137346557       15.5556853426
  N         0.0170177714        1.7953889098       16.2207841608
 Ga         0.0103207926        1.7992554258       18.1571525154
  N         0.0104283737       -0.0060210787       18.8024585819
      16
 i =       12, E =      -675.5469991019
 Ga         0.0139873938       -0.0080759719       -0.0059231600
  N         0.0099974029        1.7994203120        0.6587158813
 Ga         0.0062533824        1.8015819495        2.5942636969
  N         0.0062606928       -0.0036147586        3.2454163952
 Ga         0.0139761418       -0.0080695081        5.1800769214
  N         0.0099897757        1.7994247024        5.8447319924
 Ga         0.0062497728        1.8015840286        7.7802634277
  N         0.0062563825       -0.0036122752        8.4313894157
 Ga         0.0139562846       -0.0080580178       10.3660609738
  N         0.0099744805        1.7994335508       11.0307116448
 Ga         0.0062698435        1.8015724404       12.9662708201
  N         0.0062776721       -0.0036245679       13.6174302107
 Ga         0.0139928022       -0.0080790981       15.5520948998
  N         0.0099994426        1.7994191403       16.2167486572
 Ga         0.0062554197        1.8015807589       18.1522787932
  N         0.0062632021       -0.0036162207       18.8034139369
      16
 i =       13, E =      -675.5470339771
 Ga         0.0140290615       -0.0081000233       -0.0051316822
  N         0.0104638315        1.7991868328        0.6586909687
 Ga         0.0065344807        1.8014554772        2.5938819530
  N         0.0065611465       -0.0037882300        3.2459145696
 Ga         0.0140186559       -0.0080940479        5.1808679372
  N         0.0104560086        1.7991913354        5.8447058001
 Ga         0.0065306681        1.8014576736        7.7798814564
  N         0.0065564616       -0.0037855308        8.4318884181
 Ga         0.0139998566       -0.0080831683       10.3668524055
  N         0.0104404602        1.7992003307       11.0306863962
 Ga         0.0065513647        1.8014457241       12.9658883696
  N         0.0065786737       -0.0037983561       13.6179287116
 Ga         0.0140341583       -0.0081029693       15.5528862721
  N         0.0104661876        1.7991854785       16.2167228458
 Ga         0.0065366440        1.8014542136       18.1518963118
  N         0.0065637197       -0.0037897294       18.8039129911
      16
 i =       14, E =      -675.5471704942
 Ga         0.0221049573       -0.0127627677        0.0037841756
  N         0.0210001846        1.7932118425        0.6625374655
 Ga         0.0129090851        1.7978833645        2.5930489792
  N         0.0132703149       -0.0076618919        3.2528727246
 Ga         0.0220975009       -0.0127585084        5.1897827144
  N         0.0209865378        1.7932196872        5.8485443318
 Ga         0.0129006950        1.7978882008        7.7790441458
  N         0.0132594344       -0.0076556209        8.4388416721
 Ga         0.0220815132       -0.0127492380       10.3757621679
  N         0.0209613442        1.7932342692       11.0345263483
 Ga         0.0129384235        1.7978664191       12.9650509912
  N         0.0133024770       -0.0076804728       13.6248953443
 Ga         0.0221093065       -0.0127652794       15.5618085389
  N         0.0210069611        1.7932079360       16.2205719830
 Ga         0.0129137000        1.7978806759       18.1510616411
  N         0.0132749935       -0.0076646186       18.8108774220
      16
 i =       15, E =      -675.5472020235
 Ga         0.0199912755       -0.0115423786        0.0009575525
  N         0.0188356353        1.7943157636        0.6616938932
 Ga         0.0117650686        1.7983980698        2.5927859680
  N         0.0120672998       -0.0069673013        3.2530158307
 Ga         0.0199839027       -0.0115381629        5.1869556311
  N         0.0188241086        1.7943223878        5.8476976047
 Ga         0.0117577328        1.7984022985        7.7787820919
  N         0.0120577278       -0.0069617850        8.4389932293
 Ga         0.0199687326       -0.0115293686       10.3729400982
  N         0.0188029804        1.7943346189       11.0336851108
 Ga         0.0117910662        1.7983830545       12.9647887192
  N         0.0120953545       -0.0069835099       13.6250358738
 Ga         0.0199953196       -0.0115447144       15.5589765572
  N         0.0188415222        1.7943123706       16.2197224613
 Ga         0.0117691740        1.7983956779       18.1507987360
  N         0.0120714976       -0.0069697476       18.8110229751
      16
 i =       16, E =      -675.5472110062
 Ga         0.0205806923       -0.0118826692        0.0008280144
  N         0.0196032256        1.7937858105        0.6616988727
 Ga         0.0124290773        1.7979279287        2.5931257057
  N         0.0127681931       -0.0073719612        3.2540371972
 Ga         0.0205725968       -0.0118780366        5.1868248263
  N         0.0195921736        1.7937921588        5.8476994576
 Ga         0.0124216911        1.7979321863        7.7791218137
  N         0.0127585021       -0.0073663766        8.4400189850
 Ga         0.0205571413       -0.0118690768       10.3728145496
  N         0.0195724331        1.7938035899       11.0336913402
 Ga         0.0124549711        1.7979129734       12.9651289103
  N         0.0127961000       -0.0073880845       13.6260557891
 Ga         0.0205847135       -0.0118849913       15.5588426983
  N         0.0196091390        1.7937824017       16.2197236918
 Ga         0.0124332936        1.7979254721       18.1511386073
  N         0.0127725240       -0.0073744846       18.8120463595
      16
 i =       17, E =      -675.5472188615
 Ga         0.0222037183       -0.0128197073        0.0010580101
  N         0.0214628349        1.7926046882        0.6617183141
 Ga         0.0140887164        1.7968622746        2.5940468724
  N         0.0145175457       -0.0083819449        3.2555870103
 Ga         0.0221936914       -0.0128139609        5.1870511066
  N         0.0214525341        1.7926105989        5.8477136997
 Ga         0.0140812473        1.7968665792        7.7800432520
  N         0.0145076769       -0.0083762583        8.4415775918
 Ga         0.0221771442       -0.0128043687       10.3730521659
  N         0.0214356867        1.7926203626       11.0337144690
 Ga         0.0141142118        1.7968475492       12.9660510859
  N         0.0145450544       -0.0083978380       13.6276013343
 Ga         0.0222080118       -0.0128221856       15.5590636467
  N         0.0214686829        1.7926013167       16.2197355120
 Ga         0.0140932001        1.7968596620       18.1520592620
  N         0.0145221913       -0.0083846506       18.8135991887
      16
 i =       18, E =      -675.5472211466
 Ga         0.0227563689       -0.0131387701        0.0012026809
  N         0.0220493400        1.7922608998        0.6617277369
 Ga         0.0147790170        1.7964585594        2.5942738647
  N         0.0152476400       -0.0088034598        3.2557722914
 Ga         0.0227457294       -0.0131326701        5.1871940856
  N         0.0220392768        1.7922666725        5.8477219044
 Ga         0.0147716865        1.7964627836        7.7802708835
  N         0.0152378934       -0.0087978439        8.4417670361
 Ga         0.0227290832       -0.0131230204       10.3731992086
  N         0.0220238427        1.7922756208       11.0337262758
 Ga         0.0148036928        1.7964443074       12.9662783489
  N         0.0152743423       -0.0088188870       13.6277841860
 Ga         0.0227608152       -0.0131413362       15.5592051323
  N         0.0220550196        1.7922576254       16.2197415202
 Ga         0.0147835443        1.7964559215       18.1522852154
  N         0.0152523594       -0.0088062081       18.8137851243
      16
 i =       19, E =      -675.5472290623
 Ga         0.0243567779       -0.0140627200        0.0014658458
  N         0.0237210151        1.7913023956        0.6616904819
 Ga         0.0173087958        1.7950046131        2.5946928713
  N         0.0179345149       -0.0103547067        3.2558589838
 Ga         0.0243445373       -0.0140556946        5.1874518261
  N         0.0237118631        1.7913076408        5.8476812856
 Ga         0.0173024518        1.7950082669        7.7806934269
  N         0.0179257006       -0.0103496295        8.4418710237
 Ga         0.0243288311       -0.0140465872       10.3734710403
  N         0.0237024161        1.7913131335       11.0336990420
 Ga         0.0173287198        1.7949931057       12.9666982030
  N         0.0179564301       -0.0103673681       13.6278612900
 Ga         0.0243616842       -0.0140655504       15.5594571402
  N         0.0237258166        1.7912996280       16.2196903843
 Ga         0.0173133118        1.7950019825       18.1526991957
  N         0.0179393398       -0.0103575147       18.8138737397
      16
 i =       20, E =      -675.5472360549
 Ga         0.0254943826       -0.0147194664        0.0013673280
  N         0.0248838061        1.7906559635        0.6615261781
 Ga         0.0198632881        1.7935546505        2.5946455947
  N         0.0206681731       -0.0119329699        3.2553883838
 Ga         0.0254814279       -0.0147120260        5.1873500694
  N         0.0248755279        1.7906607050        5.8475152485
 Ga         0.0198584875        1.7935574126        7.7806509100
  N         0.0206608572       -0.0119287582        8.4414187921
 Ga         0.0254685920       -0.0147045772       10.3733814405
  N         0.0248726891        1.7906623819       11.0335451889
 Ga         0.0198764678        1.7935470388       12.9666517185
  N         0.0206831304       -0.0119416116       13.6273815067
 Ga         0.0254994892       -0.0147224112       15.5593487957
  N         0.0248875457        1.7906538093       16.2195114802
 Ga         0.0198675892        1.7935521462       18.1526461461
  N         0.0206729041       -0.0119357213       18.8134043015
      16
 i =       21, E =      -675.5472418965
 Ga         0.0257589318       -0.0148721759        0.0009080027
  N         0.0251232282        1.7905573054        0.6611951032
 Ga         0.0216281324        1.7925752495        2.5940948490
  N         0.0225849974       -0.0130396559        3.2544755792
 Ga         0.0257466727       -0.0148651333        5.1868922234
  N         0.0251153756        1.7905618045        5.8471858230
 Ga         0.0216250033        1.7925770467        7.7801044547
  N         0.0225794010       -0.0130364369        8.4405173025
 Ga         0.0257385410       -0.0148604033       10.3729280068
  N         0.0251172631        1.7905607502       11.0332203364
 Ga         0.0216345415        1.7925715494       12.9661015028
  N         0.0225927142       -0.0130441148       13.6264643093
 Ga         0.0257636561       -0.0148748992       15.5588856924
  N         0.0251261668        1.7905556145       16.2191714379
 Ga         0.0216320516        1.7925729692       18.1520913381
  N         0.0225894204       -0.0130422263       18.8124906865
      16
 i =       22, E =      -675.5472437927
 Ga         0.0251805823       -0.0145382791        0.0004898168
  N         0.0245197343        1.7909374917        0.6608444270
 Ga         0.0216714115        1.7925820001        2.5935460955
  N         0.0226595852       -0.0130827466        3.2538210464
 Ga         0.0251697291       -0.0145320459        5.1864786704
  N         0.0245116761        1.7909421130        5.8468391862
 Ga         0.0216690215        1.7925833711        7.7795564745
  N         0.0226548682       -0.0130800352        8.4398593046
 Ga         0.0251650489       -0.0145293109       10.3725091296
  N         0.0245136392        1.7909410126       11.0328676373
 Ga         0.0216752908        1.7925797621       12.9655527558
  N         0.0226643453       -0.0130854976       13.6258127617
 Ga         0.0251845207       -0.0145405487       15.5584716953
  N         0.0245226314        1.7909358257       16.2188235011
 Ga         0.0216750490        1.7925798848       18.1515429803
  N         0.0226637056       -0.0130851406       18.8118336018
      16
 i =       23, E =      -675.5472442379
 Ga         0.0246197487       -0.0142145086        0.0002864586
  N         0.0239613380        1.7912812374        0.6605712809
 Ga         0.0212017809        1.7928744903        2.5932793308
  N         0.0221690392       -0.0127995594        3.2535406861
 Ga         0.0246099125       -0.0142088616        5.1862790995
  N         0.0239529954        1.7912860252        5.8465697232
 Ga         0.0211995879        1.7928757482        7.7792886723
  N         0.0221646464       -0.0127970350        8.4395704844
 Ga         0.0246069061       -0.0142070942       10.3723027291
  N         0.0239535268        1.7912857498       11.0325900371
 Ga         0.0212054240        1.7928723894       12.9652857991
  N         0.0221733209       -0.0128020341       13.6255370046
 Ga         0.0246229785       -0.0142163694       15.5582739620
  N         0.0239644287        1.7912794603       16.2185570773
 Ga         0.0212052645        1.7928724650       18.1512782607
  N         0.0221729646       -0.0128018400       18.8115506316
      16
 i =       24, E =      -675.5472442677
 Ga         0.0244668807       -0.0141262699        0.0002544226
  N         0.0238237529        1.7913694042        0.6604490919
 Ga         0.0210228661        1.7929865170        2.5932374057
  N         0.0219768103       -0.0126885967        3.2534959576
 Ga         0.0244573927       -0.0141208236        5.1862486554
  N         0.0238153103        1.7913742506        5.8464494620
 Ga         0.0210207593        1.7929877254        7.7792457528
  N         0.0219725729       -0.0126861620        8.4395200117
 Ga         0.0244548740       -0.0141193382       10.3722684537
  N         0.0238150825        1.7913744130       11.0324651252
 Ga         0.0210265748        1.7929843786       12.9652437180
  N         0.0219810724       -0.0126910600       13.6254948660
 Ga         0.0244697243       -0.0141279077       15.5582452171
  N         0.0238269012        1.7913675942       16.2184395166
 Ga         0.0210262802        1.7929845324       18.1512377524
  N         0.0219806502       -0.0126908275       18.8115043686
      16
 i =       25, E =      -675.5472443079
 Ga         0.0244423701       -0.0141121420        0.0002488032
  N         0.0238155893        1.7913803533        0.6603580936
 Ga         0.0209734080        1.7930213046        2.5932283835
  N         0.0219197777       -0.0126556948        3.2534795148
 Ga         0.0244331264       -0.0141068362        5.1862444031
  N         0.0238071074        1.7913852234        5.8463603016
 Ga         0.0209714654        1.7930224184        7.7792355639
  N         0.0219157875       -0.0126534026        8.4394973755
 Ga         0.0244309568       -0.0141055530       10.3722602031
  N         0.0238063238        1.7913857059       11.0323713903
 Ga         0.0209770192        1.7930192229       12.9652345045
  N         0.0219238660       -0.0126580574       13.6254809520
 Ga         0.0244448063       -0.0141135447       15.5582430830
  N         0.0238186862        1.7913785733       16.2183535913
 Ga         0.0209767370        1.7930193696       18.1512302470
  N         0.0219235273       -0.0126578728       18.8114863761
      16
 i =       26, E =      -675.5472442985
 Ga         0.0245003711       -0.0141456634        0.0002447521
  N         0.0238882197        1.7913437170        0.6602763256
 Ga         0.0209907367        1.7930165912        2.5932223574
  N         0.0219318633       -0.0126627115        3.2534615952
 Ga         0.0244913931       -0.0141405100        5.1862419889
  N         0.0238797477        1.7913485830        5.8462806872
 Ga         0.0209891108        1.7930175225        7.7792277801
  N         0.0219283185       -0.0126606762        8.4394708475