 DBCSR| Multiplication driver                                               BLAS
 DBCSR| Multrec recursion limit                                              512
 DBCSR| Multiplication stack size                                           1000
 DBCSR| Maximum elements for images                                    UNLIMITED
 DBCSR| Multiplicative factor virtual images                                   1
 DBCSR| Multiplication size stacks                                             3
 DBCSR| Number of 3D layers                                               SINGLE
 DBCSR| Use MPI memory allocation                                              T
 DBCSR| Use RMA algorithm                                                      F
 DBCSR| Use Communication thread                                               T
 DBCSR| Communication thread load                                             87


  **** **** ******  **  PROGRAM STARTED AT               2019-06-24 09:39:19.164
 ***** ** ***  *** **   PROGRAM STARTED ON        blg8244.int.ets1.calculquebec.
 **    ****   ******    PROGRAM STARTED BY                                   rzk
 ***** **    ** ** **   PROGRAM PROCESS ID                                434996
  **** **  *******  **  PROGRAM STARTED IN /scratch/rzk/rzk/GaN-carbene/443-adat
                                           oms-both-2x2/02-Methanol/00-Gas

 CP2K| version string:                    CP2K version 7.0 (Development Version)
 CP2K| source code revision number:                                    svn:18619
 CP2K| cp2kflags: libint fftw3 libxc parallel mpi3 scalapack mkl                
 CP2K| is freely available from                            https://www.cp2k.org/
 CP2K| Program compiled at                          Sun Apr  7 00:48:11 EDT 2019
 CP2K| Program compiled on                      beluga2.int.ets1.calculquebec.ca
 CP2K| Program compiled for                    Beluga-Linux-x86-64-intel-openmpi
 CP2K| Data directory path    /home/rzk/projects/def-rzk/group/cp2k/cp2k-mcgill/
 CP2K| Input file name                                                 start.inp
 
 GLOBAL| Force Environment number                                              1
 GLOBAL| Basis set file name                                        BASIS_MOLOPT
 GLOBAL| Potential file name                                      GTH_POTENTIALS
 GLOBAL| MM Potential file name                                     MM_POTENTIAL
 GLOBAL| Coordinate file name                                      __STD_INPUT__
 GLOBAL| Method name                                                        CP2K
 GLOBAL| Project name                                                       TEST
 GLOBAL| Preferred FFT library                                             FFTW3
 GLOBAL| Preferred diagonalization lib.                                       SL
 GLOBAL| Run type                                                        GEO_OPT
 GLOBAL| All-to-all communication in single precision                          F
 GLOBAL| FFTs using library dependent lengths                                  F
 GLOBAL| Global print level                                               MEDIUM
 GLOBAL| MPI I/O enabled                                                       T
 GLOBAL| Total number of message passing processes                            40
 GLOBAL| Number of threads for this process                                    1
 GLOBAL| This output is from process                                           0
 GLOBAL| CPU model name :  Intel(R) Xeon(R) Gold 6148 CPU @ 2.40GHz

 MEMORY| system memory details [Kb]
 MEMORY|                        rank 0           min           max       average
 MEMORY| MemTotal            196614300     196614300     196614300     196614300
 MEMORY| MemFree             172609640     172609640     172609640     172609640
 MEMORY| Buffers                     0             0             0             0
 MEMORY| Cached                1598692       1598692       1598692       1598692
 MEMORY| Slab                  1890172       1890172       1890172       1890172
 MEMORY| SReclaimable           227728        227728        227728        227728
 MEMORY| MemLikelyFree       174436060     174436060     174436060     174436060


 *** Fundamental physical constants (SI units) ***

 *** Literature: B. J. Mohr and B. N. Taylor,
 ***             CODATA recommended values of the fundamental physical
 ***             constants: 2006, Web Version 5.1
 ***             http://physics.nist.gov/constants

 Speed of light in vacuum [m/s]                             2.99792458000000E+08
 Magnetic constant or permeability of vacuum [N/A**2]       1.25663706143592E-06
 Electric constant or permittivity of vacuum [F/m]          8.85418781762039E-12
 Planck constant (h) [J*s]                                  6.62606896000000E-34
 Planck constant (h-bar) [J*s]                              1.05457162825177E-34
 Elementary charge [C]                                      1.60217648700000E-19
 Electron mass [kg]                                         9.10938215000000E-31
 Electron g factor [ ]                                     -2.00231930436220E+00
 Proton mass [kg]                                           1.67262163700000E-27
 Fine-structure constant                                    7.29735253760000E-03
 Rydberg constant [1/m]                                     1.09737315685270E+07
 Avogadro constant [1/mol]                                  6.02214179000000E+23
 Boltzmann constant [J/K]                                   1.38065040000000E-23
 Atomic mass unit [kg]                                      1.66053878200000E-27
 Bohr radius [m]                                            5.29177208590000E-11

 *** Conversion factors ***

 [u] -> [a.u.]                                              1.82288848426455E+03
 [Angstrom] -> [Bohr] = [a.u.]                              1.88972613288564E+00
 [a.u.] = [Bohr] -> [Angstrom]                              5.29177208590000E-01
 [a.u.] -> [s]                                              2.41888432650478E-17
 [a.u.] -> [fs]                                             2.41888432650478E-02
 [a.u.] -> [J]                                              4.35974393937059E-18
 [a.u.] -> [N]                                              8.23872205491840E-08
 [a.u.] -> [K]                                              3.15774647902944E+05
 [a.u.] -> [kJ/mol]                                         2.62549961709828E+03
 [a.u.] -> [kcal/mol]                                       6.27509468713739E+02
 [a.u.] -> [Pa]                                             2.94210107994716E+13
 [a.u.] -> [bar]                                            2.94210107994716E+08
 [a.u.] -> [atm]                                            2.90362800883016E+08
 [a.u.] -> [eV]                                             2.72113838565563E+01
 [a.u.] -> [Hz]                                             6.57968392072181E+15
 [a.u.] -> [1/cm] (wave numbers)                            2.19474631370540E+05
 [a.u./Bohr**2] -> [1/cm]                                   5.14048714338585E+03
 

 CELL_TOP| Volume [angstrom^3]:                                         4586.323
 CELL_TOP| Vector a [angstrom    12.864     0.000     0.000    |a| =      12.864
 CELL_TOP| Vector b [angstrom    -6.432    11.141     0.000    |b| =      12.864
 CELL_TOP| Vector c [angstrom     0.000     0.000    32.000    |c| =      32.000
 CELL_TOP| Angle (b,c), alpha [degree]:                                   90.000
 CELL_TOP| Angle (a,c), beta  [degree]:                                   90.000
 CELL_TOP| Angle (a,b), gamma [degree]:                                  120.000
 CELL_TOP| Numerically orthorhombic:                                          NO
 
 GENERATE|  Preliminary Number of Bonds generated:                             0
 GENERATE|  Achieved consistency in connectivity generation.

 CELL| Volume [angstrom^3]:                                             4586.323
 CELL| Vector a [angstrom]:      12.864     0.000     0.000    |a| =      12.864
 CELL| Vector b [angstrom]:      -6.432    11.141     0.000    |b| =      12.864
 CELL| Vector c [angstrom]:       0.000     0.000    32.000    |c| =      32.000
 CELL| Angle (b,c), alpha [degree]:                                       90.000
 CELL| Angle (a,c), beta  [degree]:                                       90.000
 CELL| Angle (a,b), gamma [degree]:                                      120.000
 CELL| Numerically orthorhombic:                                              NO

 CELL_REF| Volume [angstrom^3]:                                         4670.759
 CELL_REF| Vector a [angstrom    12.982     0.000     0.000    |a| =      12.982
 CELL_REF| Vector b [angstrom    -6.491    11.243     0.000    |b| =      12.982
 CELL_REF| Vector c [angstrom     0.000     0.000    32.000    |c| =      32.000
 CELL_REF| Angle (b,c), alpha [degree]:                                   90.000
 CELL_REF| Angle (a,c), beta  [degree]:                                   90.000
 CELL_REF| Angle (a,b), gamma [degree]:                                  120.000
 CELL_REF| Numerically orthorhombic:                                          NO

 *******************************************************************************
 *******************************************************************************
 **                                                                           **
 **     #####                         ##              ##                      **
 **    ##   ##            ##          ##              ##                      **
 **   ##     ##                       ##            ######                    **
 **   ##     ##  ##   ##  ##   #####  ##  ##   ####   ##    #####    #####    **
 **   ##     ##  ##   ##  ##  ##      ## ##   ##      ##   ##   ##  ##   ##   **
 **   ##  ## ##  ##   ##  ##  ##      ####     ###    ##   ######   ######    **
 **    ##  ###   ##   ##  ##  ##      ## ##      ##   ##   ##       ##        **
 **     #######   #####   ##   #####  ##  ##  ####    ##    #####   ##        **
 **           ##                                                    ##        **
 **                                                                           **
 **                                                ... make the atoms dance   **
 **                                                                           **
 **            Copyright (C) by CP2K developers group (2000 - 2018)           **
 **                                                                           **
 *******************************************************************************

 DFT| Spin unrestricted (spin-polarized) Kohn-Sham calculation               UKS
 DFT| Multiplicity                                                             1
 DFT| Number of spin states                                                    2
 DFT| Charge                                                                   0
 DFT| Self-interaction correction (SIC)                                       NO
 DFT| Cutoffs: density                                              1.000000E-10
 DFT|          gradient                                             1.000000E-10
 DFT|          tau                                                  1.000000E-10
 DFT|          cutoff_smoothing_range                               0.000000E+00
 DFT| XC density smoothing                                                  NONE
 DFT| XC derivatives                                                          PW
 FUNCTIONAL| ROUTINE=NEW
 FUNCTIONAL| PBE:
 FUNCTIONAL| J.P.Perdew, K.Burke, M.Ernzerhof, Phys. Rev. Letter, vol. 77, n 18,
 FUNCTIONAL|  pp. 3865-3868, (1996){spin polarized}                             
 vdW POTENTIAL|                                                   Pair Potential
 vdW POTENTIAL|          DFT-D3 (Version 3.1)
 vdW POTENTIAL|          Potential Form: S. Grimme et al, JCP 132: 154104 (2010)
 vdW POTENTIAL|          Zero Damping
 vdW POTENTIAL|          Cutoff Radius [Bohr]:                             18.90
 vdW POTENTIAL|          s6 Scaling Factor:                               1.0000
 vdW POTENTIAL|          sr6 Scaling Factor:                              1.2170
 vdW POTENTIAL|          s8 Scaling Factor:                               0.7220
 vdW POTENTIAL|          Cutoff for CN calculation:                   0.1000E-05

 QS| Method:                                                                 GPW
 QS| Density plane wave grid type                        NON-SPHERICAL FULLSPACE
 QS| Number of grid levels:                                                    5
 QS| Density cutoff [a.u.]:                                                600.0
 QS| Multi grid cutoff [a.u.]: 1) grid level                               600.0
 QS|                           2) grid level                               200.0
 QS|                           3) grid level                                66.7
 QS|                           4) grid level                                22.2
 QS|                           5) grid level                                 7.4
 QS| Grid level progression factor:                                          3.0
 QS| Relative density cutoff [a.u.]:                                        20.0
 QS| Consistent realspace mapping and integration 
 QS| Interaction thresholds: eps_pgf_orb:                                1.0E-07
 QS|                         eps_filter_matrix:                          0.0E+00
 QS|                         eps_core_charge:                            1.0E-16
 QS|                         eps_rho_gspace:                             1.0E-14
 QS|                         eps_rho_rspace:                             1.0E-14
 QS|                         eps_gvg_rspace:                             1.0E-07
 QS|                         eps_ppl:                                    1.0E-02
 QS|                         eps_ppnl:                                   1.0E-09


 ATOMIC KIND INFORMATION

  1. Atomic kind: O                                     Number of atoms:       1

     Orbital Basis Set                                     DZVP-MOLOPT-SR-GTH-q6

       Number of orbital shell sets:                                           1
       Number of orbital shells:                                               5
       Number of primitive Cartesian functions:                                5
       Number of Cartesian basis functions:                                   14
       Number of spherical basis functions:                                   13
       Norm type:                                                              2

       Normalised Cartesian orbitals:

                        Set   Shell   Orbital            Exponent    Coefficient

                          1       1    2s               10.389228       0.396646
                                                         3.849621       0.208811
                                                         1.388401      -0.301641
                                                         0.496955      -0.274061
                                                         0.162492      -0.033677

                          1       2    3s               10.389228       0.303673
                                                         3.849621       0.240943
                                                         1.388401      -0.313066
                                                         0.496955      -0.043055
                                                         0.162492       0.213991

                          1       3    3px              10.389228      -1.530415
                                                         3.849621      -1.371928
                                                         1.388401      -0.761951
                                                         0.496955      -0.253695
                                                         0.162492      -0.035541
                          1       3    3py              10.389228      -1.530415
                                                         3.849621      -1.371928
                                                         1.388401      -0.761951
                                                         0.496955      -0.253695
                                                         0.162492      -0.035541
                          1       3    3pz              10.389228      -1.530415
                                                         3.849621      -1.371928
                                                         1.388401      -0.761951
                                                         0.496955      -0.253695
                                                         0.162492      -0.035541

                          1       4    4px              10.389228      -0.565392
                                                         3.849621      -0.038231
                                                         1.388401      -0.382373
                                                         0.496955       0.179070
                                                         0.162492       0.122714
                          1       4    4py              10.389228      -0.565392
                                                         3.849621      -0.038231
                                                         1.388401      -0.382373
                                                         0.496955       0.179070
                                                         0.162492       0.122714
                          1       4    4pz              10.389228      -0.565392
                                                         3.849621      -0.038231
                                                         1.388401      -0.382373
                                                         0.496955       0.179070
                                                         0.162492       0.122714

                          1       5    4dx2             10.389228       1.867377
                                                         3.849621       0.670994
                                                         1.388401       1.353441
                                                         0.496955       0.273538
                                                         0.162492       0.006620
                          1       5    4dxy             10.389228       3.234392
                                                         3.849621       1.162195
                                                         1.388401       2.344229
                                                         0.496955       0.473781
                                                         0.162492       0.011466
                          1       5    4dxz             10.389228       3.234392
                                                         3.849621       1.162195
                                                         1.388401       2.344229
                                                         0.496955       0.473781
                                                         0.162492       0.011466
                          1       5    4dy2             10.389228       1.867377
                                                         3.849621       0.670994
                                                         1.388401       1.353441
                                                         0.496955       0.273538
                                                         0.162492       0.006620
                          1       5    4dyz             10.389228       3.234392
                                                         3.849621       1.162195
                                                         1.388401       2.344229
                                                         0.496955       0.473781
                                                         0.162492       0.011466
                          1       5    4dz2             10.389228       1.867377
                                                         3.849621       0.670994
                                                         1.388401       1.353441
                                                         0.496955       0.273538
                                                         0.162492       0.006620

     GTH Potential information for                                    GTH-PBE-q6

       Description:                       Goedecker-Teter-Hutter pseudopotential
                                           Goedecker et al., PRB 54, 1703 (1996)
                                          Hartwigsen et al., PRB 58, 3641 (1998)
                                                      Krack, TCA 114, 145 (2005)

       Gaussian exponent of the core charge distribution:               8.360253
       Electronic configuration (s p d ...):                               2   4

       Parameters of the local part of the GTH pseudopotential:

                          rloc        C1          C2          C3          C4
                        0.244554  -16.667215    2.487311

       Parameters of the non-local part of the GTH pseudopotential:

                   l      r(l)      h(i,j,l)

                   0    0.220956   18.337458
                   1    0.211332

  2. Atomic kind: H                                     Number of atoms:       4

     Orbital Basis Set                                     DZVP-MOLOPT-SR-GTH-q1

       Number of orbital shell sets:                                           1
       Number of orbital shells:                                               3
       Number of primitive Cartesian functions:                                5
       Number of Cartesian basis functions:                                    5
       Number of spherical basis functions:                                    5
       Norm type:                                                              2

       Normalised Cartesian orbitals:

                        Set   Shell   Orbital            Exponent    Coefficient

                          1       1    2s               10.068468      -0.133023
                                                         2.680223      -0.177618
                                                         0.791502      -0.258419
                                                         0.239116      -0.107525
                                                         0.082193      -0.014019

                          1       2    3s               10.068468       0.344673
                                                         2.680223       1.819821
                                                         0.791502      -0.999069
                                                         0.239116       0.017430
                                                         0.082193       0.082660

                          1       3    3px              10.068468       0.155326
                                                         2.680223       0.367157
                                                         0.791502       0.311480
                                                         0.239116       0.080105
                                                         0.082193       0.033440
                          1       3    3py              10.068468       0.155326
                                                         2.680223       0.367157
                                                         0.791502       0.311480
                                                         0.239116       0.080105
                                                         0.082193       0.033440
                          1       3    3pz              10.068468       0.155326
                                                         2.680223       0.367157
                                                         0.791502       0.311480
                                                         0.239116       0.080105
                                                         0.082193       0.033440

     GTH Potential information for                                    GTH-PBE-q1

       Description:                       Goedecker-Teter-Hutter pseudopotential
                                           Goedecker et al., PRB 54, 1703 (1996)
                                          Hartwigsen et al., PRB 58, 3641 (1998)
                                                      Krack, TCA 114, 145 (2005)

       Gaussian exponent of the core charge distribution:              12.500000
       Electronic configuration (s p d ...):                                   1

       Parameters of the local part of the GTH pseudopotential:

                          rloc        C1          C2          C3          C4
                        0.200000   -4.178900    0.724463

  3. Atomic kind: C                                     Number of atoms:       1

     Orbital Basis Set                                     DZVP-MOLOPT-SR-GTH-q4

       Number of orbital shell sets:                                           1
       Number of orbital shells:                                               5
       Number of primitive Cartesian functions:                                5
       Number of Cartesian basis functions:                                   14
       Number of spherical basis functions:                                   13
       Norm type:                                                              2

       Normalised Cartesian orbitals:

                        Set   Shell   Orbital            Exponent    Coefficient

                          1       1    2s                5.605331       0.322515
                                                         2.113016       0.213043
                                                         0.769911      -0.209686
                                                         0.348157      -0.219794
                                                         0.128212      -0.022789

                          1       2    3s                5.605331       0.552234
                                                         2.113016       0.082072
                                                         0.769911       0.007843
                                                         0.348157       0.136893
                                                         0.128212       0.074283

                          1       3    3px               5.605331      -0.703879
                                                         2.113016      -0.642521
                                                         0.769911      -0.374851
                                                         0.348157      -0.139743
                                                         0.128212      -0.027849
                          1       3    3py               5.605331      -0.703879
                                                         2.113016      -0.642521
                                                         0.769911      -0.374851
                                                         0.348157      -0.139743
                                                         0.128212      -0.027849
                          1       3    3pz               5.605331      -0.703879
                                                         2.113016      -0.642521
                                                         0.769911      -0.374851
                                                         0.348157      -0.139743
                                                         0.128212      -0.027849

                          1       4    4px               5.605331      -0.480376
                                                         2.113016      -0.552894
                                                         0.769911      -0.316145
                                                         0.348157       0.210505
                                                         0.128212       0.076095
                          1       4    4py               5.605331      -0.480376
                                                         2.113016      -0.552894
                                                         0.769911      -0.316145
                                                         0.348157       0.210505
                                                         0.128212       0.076095
                          1       4    4pz               5.605331      -0.480376
                                                         2.113016      -0.552894
                                                         0.769911      -0.316145
                                                         0.348157       0.210505
                                                         0.128212       0.076095

                          1       5    4dx2              5.605331       0.640026
                                                         2.113016       0.274300
                                                         0.769911       0.446711
                                                         0.348157       0.028674
                                                         0.128212       0.029790
                          1       5    4dxy              5.605331       1.108557
                                                         2.113016       0.475102
                                                         0.769911       0.773726
                                                         0.348157       0.049666
                                                         0.128212       0.051599
                          1       5    4dxz              5.605331       1.108557
                                                         2.113016       0.475102
                                                         0.769911       0.773726
                                                         0.348157       0.049666
                                                         0.128212       0.051599
                          1       5    4dy2              5.605331       0.640026
                                                         2.113016       0.274300
                                                         0.769911       0.446711
                                                         0.348157       0.028674
                                                         0.128212       0.029790
                          1       5    4dyz              5.605331       1.108557
                                                         2.113016       0.475102
                                                         0.769911       0.773726
                                                         0.348157       0.049666
                                                         0.128212       0.051599
                          1       5    4dz2              5.605331       0.640026
                                                         2.113016       0.274300
                                                         0.769911       0.446711
                                                         0.348157       0.028674
                                                         0.128212       0.029790

     GTH Potential information for                                    GTH-PBE-q4

       Description:                       Goedecker-Teter-Hutter pseudopotential
                                           Goedecker et al., PRB 54, 1703 (1996)
                                          Hartwigsen et al., PRB 58, 3641 (1998)
                                                      Krack, TCA 114, 145 (2005)

       Gaussian exponent of the core charge distribution:               4.364419
       Electronic configuration (s p d ...):                               2   2

       Parameters of the local part of the GTH pseudopotential:

                          rloc        C1          C2          C3          C4
                        0.338471   -8.803674    1.339211

       Parameters of the non-local part of the GTH pseudopotential:

                   l      r(l)      h(i,j,l)

                   0    0.302576    9.622487
                   1    0.291507


 MOLECULE KIND INFORMATION


 All atoms are their own molecule, skipping detailed information


 TOTAL NUMBERS AND MAXIMUM NUMBERS

  Total number of            - Atomic kinds:                                   3
                             - Atoms:                                          6
                             - Shell sets:                                     6
                             - Shells:                                        22
                             - Primitive Cartesian functions:                 30
                             - Cartesian basis functions:                     48
                             - Spherical basis functions:                     46

  Maximum angular momentum of- Orbital basis functions:                        2
                             - Local part of the GTH pseudopotential:          2
                             - Non-local part of the GTH pseudopotential:      0


 MODULE QUICKSTEP:  ATOMIC COORDINATES IN angstrom

  Atom  Kind  Element       X           Y           Z          Z(eff)       Mass

       1     1 O    8   -0.298210    3.950053   -0.821144      6.00      15.9994
       2     2 H    1   -0.204783    4.726877   -1.419677      1.00       1.0079
       3     3 C    6   -0.006760    2.752830   -1.591663      4.00      12.0107
       4     2 H    1    0.874781    2.896763   -2.235441      1.00       1.0079
       5     2 H    1    0.205670    1.955837   -0.871294      1.00       1.0079
       6     2 H    1   -0.879824    2.486583   -2.201911      1.00       1.0079




 SCF PARAMETERS         Density guess:                                    ATOMIC
                        --------------------------------------------------------
                        max_scf:                                              80
                        max_scf_history:                                       0
                        max_diis:                                              4
                        --------------------------------------------------------
                        eps_scf:                                        5.00E-06
                        eps_scf_history:                                0.00E+00
                        eps_diis:                                       1.00E-01
                        eps_eigval:                                     1.00E-05
                        --------------------------------------------------------
                        level_shift [a.u.]:                                 0.00
                        --------------------------------------------------------
                        Outer loop SCF in use 
                        No variables optimised in outer loop
                        eps_scf                                         5.00E-06
                        max_scf                                                4
                        No outer loop optimization
                        step_size                                       5.00E-01

 PW_GRID| Information for grid number                                          1
 PW_GRID| Grid distributed over                                    40 processors
 PW_GRID| Real space group dimensions                                    40    1
 PW_GRID| the grid is blocked:                                                NO
 PW_GRID| Cutoff [a.u.]                                                    600.0
 PW_GRID| spherical cutoff:                                                   NO
 PW_GRID|   Bounds   1           -144     143                Points:         288
 PW_GRID|   Bounds   2           -144     143                Points:         288
 PW_GRID|   Bounds   3           -337     337                Points:         675
 PW_GRID| Volume element (a.u.^3)  0.5630E-03     Volume (a.u.^3)     31519.8467
 PW_GRID| Grid span                                                    FULLSPACE
 PW_GRID|   Distribution                         Average         Max         Min
 PW_GRID|   G-Vectors                          1399680.0     1399680     1399680
 PW_GRID|   G-Rays                                4860.0        4860        4860
 PW_GRID|   Real Space Points                  1399680.0     1555200     1360800

 PW_GRID| Information for grid number                                          2
 PW_GRID| Grid distributed over                                    40 processors
 PW_GRID| Real space group dimensions                                    40    1
 PW_GRID| the grid is blocked:                                                NO
 PW_GRID| Cutoff [a.u.]                                                    200.0
 PW_GRID| spherical cutoff:                                                   NO
 PW_GRID|   Bounds   1            -80      79                Points:         160
 PW_GRID|   Bounds   2            -80      79                Points:         160
 PW_GRID|   Bounds   3           -200     199                Points:         400
 PW_GRID| Volume element (a.u.^3)  0.3078E-02     Volume (a.u.^3)     31519.8467
 PW_GRID| Grid span                                                    FULLSPACE
 PW_GRID|   Distribution                         Average         Max         Min
 PW_GRID|   G-Vectors                           256000.0      256160      255840
 PW_GRID|   G-Rays                                1600.0        1601        1599
 PW_GRID|   Real Space Points                   256000.0      256000      256000

 PW_GRID| Information for grid number                                          3
 PW_GRID| Grid distributed over                                    40 processors
 PW_GRID| Real space group dimensions                                    40    1
 PW_GRID| the grid is blocked:                                                NO
 PW_GRID| Cutoff [a.u.]                                                     66.7
 PW_GRID| spherical cutoff:                                                   NO
 PW_GRID|   Bounds   1            -48      47                Points:          96
 PW_GRID|   Bounds   2            -48      47                Points:          96
 PW_GRID|   Bounds   3           -112     112                Points:         225
 PW_GRID| Volume element (a.u.^3)  0.1520E-01     Volume (a.u.^3)     31519.8467
 PW_GRID| Grid span                                                    FULLSPACE
 PW_GRID|   Distribution                         Average         Max         Min
 PW_GRID|   G-Vectors                            51840.0       52320       51072
 PW_GRID|   G-Rays                                 540.0         545         532
 PW_GRID|   Real Space Points                    51840.0       64800       43200

 PW_GRID| Information for grid number                                          4
 PW_GRID| Grid distributed over                                    40 processors
 PW_GRID| Real space group dimensions                                    40    1
 PW_GRID| the grid is blocked:                                                NO
 PW_GRID| Cutoff [a.u.]                                                     22.2
 PW_GRID| spherical cutoff:                                                   NO
 PW_GRID|   Bounds   1            -27      26                Points:          54
 PW_GRID|   Bounds   2            -27      26                Points:          54
 PW_GRID|   Bounds   3            -67      67                Points:         135
 PW_GRID| Volume element (a.u.^3)  0.8007E-01     Volume (a.u.^3)     31519.8467
 PW_GRID| Grid span                                                    FULLSPACE
 PW_GRID|   Distribution                         Average         Max         Min
 PW_GRID|   G-Vectors                             9841.5       10098        9558
 PW_GRID|   G-Rays                                 182.2         187         177
 PW_GRID|   Real Space Points                     9841.5       14580        7290

 PW_GRID| Information for grid number                                          5
 PW_GRID| Grid distributed over                                    40 processors
 PW_GRID| Real space group dimensions                                     5    8
 PW_GRID| the grid is blocked:                                                NO
 PW_GRID| Cutoff [a.u.]                                                      7.4
 PW_GRID| spherical cutoff:                                                   NO
 PW_GRID|   Bounds   1            -16      15                Points:          32
 PW_GRID|   Bounds   2            -16      15                Points:          32
 PW_GRID|   Bounds   3            -37      37                Points:          75
 PW_GRID| Volume element (a.u.^3)  0.4104         Volume (a.u.^3)     31519.8467
 PW_GRID| Grid span                                                    FULLSPACE
 PW_GRID|   Distribution                         Average         Max         Min
 PW_GRID|   G-Vectors                             1920.0        2144        1632
 PW_GRID|   G-Rays                                  60.0          67          51
 PW_GRID|   Real Space Points                     1920.0        2100        1800

 POISSON| Solver                                                        PERIODIC
 POISSON| Periodicity                                                        XYZ

 RS_GRID| Information for grid number                                          1
 RS_GRID|   Bounds   1           -144     143                Points:         288
 RS_GRID|   Bounds   2           -144     143                Points:         288
 RS_GRID|   Bounds   3           -337     337                Points:         675
 RS_GRID| Real space distribution over                                  4 groups
 RS_GRID| Real space distribution along direction                              2
 RS_GRID| Border size                                                         55
 RS_GRID| Real space distribution over                                 10 groups
 RS_GRID| Real space distribution along direction                              3
 RS_GRID| Border size                                                         55
 RS_GRID|   Distribution                         Average         Max         Min
 RS_GRID|   Planes                                 182.0         182         182
 RS_GRID|   Distribution                         Average         Max         Min
 RS_GRID|   Planes                                 177.5         178         177

 RS_GRID| Information for grid number                                          2
 RS_GRID|   Bounds   1            -80      79                Points:         160
 RS_GRID|   Bounds   2            -80      79                Points:         160
 RS_GRID|   Bounds   3           -200     199                Points:         400
 RS_GRID| Real space distribution over                                  4 groups
 RS_GRID| Real space distribution along direction                              2
 RS_GRID| Border size                                                         37
 RS_GRID| Real space distribution over                                 10 groups
 RS_GRID| Real space distribution along direction                              3
 RS_GRID| Border size                                                         37
 RS_GRID|   Distribution                         Average         Max         Min
 RS_GRID|   Planes                                 114.0         114         114
 RS_GRID|   Distribution                         Average         Max         Min
 RS_GRID|   Planes                                 114.0         114         114

 RS_GRID| Information for grid number                                          3
 RS_GRID|   Bounds   1            -48      47                Points:          96
 RS_GRID|   Bounds   2            -48      47                Points:          96
 RS_GRID|   Bounds   3           -112     112                Points:         225
 RS_GRID| Real space fully replicated
 RS_GRID| Group size                                                           1

 RS_GRID| Information for grid number                                          4
 RS_GRID|   Bounds   1            -27      26                Points:          54
 RS_GRID|   Bounds   2            -27      26                Points:          54
 RS_GRID|   Bounds   3            -67      67                Points:         135
 RS_GRID| Real space fully replicated
 RS_GRID| Group size                                                           1

 RS_GRID| Information for grid number                                          5
 RS_GRID|   Bounds   1            -16      15                Points:          32
 RS_GRID|   Bounds   2            -16      15                Points:          32
 RS_GRID|   Bounds   3            -37      37                Points:          75
 RS_GRID| Real space fully replicated
 RS_GRID| Group size                                                           1

 BFGS| Use rational function optimization for step estimation:                NO
 BFGS| Use model Hessian for initial guess:                                  YES
 BFGS| Restart Hessian:                                                       NO
 BFGS| Trust radius:                                                       0.472

 *******************************************************************************
 ***                     STARTING GEOMETRY OPTIMIZATION                      ***
 ***                                   BFGS                                  ***
 *******************************************************************************

 Spin 1

 Number of electrons:                                                          7
 Number of occupied orbitals:                                                  7
 Number of molecular orbitals:                                                 7

 Spin 2

 Number of electrons:                                                          7
 Number of occupied orbitals:                                                  7
 Number of molecular orbitals:                                                 7

 Number of orbital functions:                                                 46
 Number of independent orbital functions:                                     46

 Extrapolation method: initial_guess

 Atomic guess: The first density matrix is obtained in terms of atomic orbitals
               and electronic configurations assigned to each atomic kind

 Guess for atomic kind: O

 Electronic structure
    Total number of core electrons                                          2.00
    Total number of valence electrons                                       6.00
    Total number of electrons                                               8.00
    Multiplicity                                                   not specified
    S   [  2.00] 2.00
    P      4.00
 

 *******************************************************************************
                  Iteration          Convergence                     Energy [au]
 *******************************************************************************
                          1        0.702811                     -15.577904332270
                          2        0.612408                     -15.588447180504
                          3        0.955344E-02                 -15.655871208406
                          4        0.223754E-02                 -15.655885053552
                          5        0.157183E-02                 -15.655885461027
                          6        0.124953E-02                 -15.655885607150
                          7        0.312011E-06                 -15.655885858066

 Energy components [Hartree]           Total Energy ::          -15.655885858066
                                        Band Energy ::           -2.983128125584
                                     Kinetic Energy ::           11.754765134683
                                   Potential Energy ::          -27.410650992750
                                      Virial (-V/T) ::            2.331875684345
                                        Core Energy ::          -26.153522949072
                                          XC Energy ::           -3.157392363346
                                     Coulomb Energy ::           13.655029454351
                       Total Pseudopotential Energy ::          -37.943026860963
                       Local Pseudopotential Energy ::          -39.220419683052
                    Nonlocal Pseudopotential Energy ::            1.277392822089
                                        Confinement ::            0.347387772086

 Orbital energies  State     L     Occupation   Energy[a.u.]          Energy[eV]

                       1     0          2.000      -0.861522          -23.443215
 
                       1     1          4.000      -0.315021           -8.572154
 

 Total Electron Density at R=0:                                         0.000093

 Guess for atomic kind: H

 Electronic structure
    Total number of core electrons                                          0.00
    Total number of valence electrons                                       1.00
    Total number of electrons                                               1.00
    Multiplicity                                                   not specified
    S      1.00
 

 *******************************************************************************
                  Iteration          Convergence                     Energy [au]
 *******************************************************************************
                          1        0.250972E-02                  -0.375256815885
                          2        0.570752E-04                  -0.375258666164
                          3        0.832405E-09                  -0.375258667122

 Energy components [Hartree]           Total Energy ::           -0.375258667122
                                        Band Energy ::           -0.076317618391
                                     Kinetic Energy ::            0.771356566341
                                   Potential Energy ::           -1.146615233463
                                      Virial (-V/T) ::            1.486491829455
                                        Core Energy ::           -0.456090715790
                                          XC Energy ::           -0.314218627334
                                     Coulomb Energy ::            0.395050676003
                       Total Pseudopotential Energy ::           -1.238482237174
                       Local Pseudopotential Energy ::           -1.238482237174
                    Nonlocal Pseudopotential Energy ::            0.000000000000
                                        Confinement ::            0.110349550431

 Orbital energies  State     L     Occupation   Energy[a.u.]          Energy[eV]

                       1     0          1.000      -0.076318           -2.076708
 

 Total Electron Density at R=0:                                         0.425022

 Guess for atomic kind: C

 Electronic structure
    Total number of core electrons                                          2.00
    Total number of valence electrons                                       4.00
    Total number of electrons                                               6.00
    Multiplicity                                                   not specified
    S   [  2.00] 2.00
    P      2.00
 

 *******************************************************************************
                  Iteration          Convergence                     Energy [au]
 *******************************************************************************
                          1        0.261814E-01                  -5.246264729087
                          2        0.905236E-02                  -5.246529568708
                          3        0.681743E-04                  -5.246565167452
                          4        0.792829E-08                  -5.246565169473

 Energy components [Hartree]           Total Energy ::           -5.246565169473
                                        Band Energy ::           -1.058732595430
                                     Kinetic Energy ::            3.518928170589
                                   Potential Energy ::           -8.765493340062
                                      Virial (-V/T) ::            2.490955460053
                                        Core Energy ::           -8.429377169956
                                          XC Energy ::           -1.450183342358
                                     Coulomb Energy ::            4.632995342842
                       Total Pseudopotential Energy ::          -11.978048809389
                       Local Pseudopotential Energy ::          -12.816738187351
                    Nonlocal Pseudopotential Energy ::            0.838689377962
                                        Confinement ::            0.297434688432

 Orbital energies  State     L     Occupation   Energy[a.u.]          Energy[eV]

                       1     0          2.000      -0.410911          -11.181458
 
                       1     1          2.000      -0.118455           -3.223332
 

 Total Electron Density at R=0:                                         0.001337

 Spin 1
 Re-scaling the density matrix to get the right number of electrons for spin 1
                  # Electrons              Trace(P)               Scaling factor
                            7                 7.000                        1.000

 Spin 2
 Re-scaling the density matrix to get the right number of electrons for spin 2
                  # Electrons              Trace(P)               Scaling factor
                            7                 7.000                        1.000


 SCF WAVEFUNCTION OPTIMIZATION

  ----------------------------------- OT ---------------------------------------
  Minimizer      : CG                  : conjugate gradient
  Preconditioner : FULL_ALL            : diagonalization, state selective
  Precond_solver : DEFAULT
  Line search    : 2PNT                : 2 energies, one gradient
  stepsize       :    0.15000000                  energy_gap     :    0.08000000
  eps_taylor     :   0.10000E-15                  max_taylor     :             4
  ----------------------------------- OT ---------------------------------------

  Step     Update method      Time    Convergence         Total energy    Change
  ------------------------------------------------------------------------------
     1 OT CG       0.15E+00    7.3     0.19750262       -21.7928482085 -2.18E+01
     2 OT LS       0.12E+00    5.2                      -23.1149071860
     3 OT CG       0.12E+00   11.5     0.10697158       -23.3767812734 -1.58E+00
     4 OT LS       0.12E+00    6.3                      -23.7149205496
     5 OT CG       0.12E+00   12.0     0.08788156       -23.7141888726 -3.37E-01
     6 OT LS       0.11E+00    6.2                      -23.9699189286
     7 OT CG       0.11E+00    9.8     0.04057667       -23.9745071839 -2.60E-01
     8 OT LS       0.14E+00    5.9                      -24.0431798455
     9 OT CG       0.14E+00   11.9     0.01931343       -24.0475390548 -7.30E-02
    10 OT LS       0.17E+00    6.1                      -24.0674299174
    11 OT CG       0.17E+00   11.8     0.01109986       -24.0680793248 -2.05E-02
    12 OT LS       0.22E+00    5.8                      -24.0763001375
    13 OT CG       0.22E+00    9.8     0.00591527       -24.0766705829 -8.59E-03
    14 OT LS       0.17E+00    4.9                      -24.0784302464
    15 OT CG       0.17E+00    9.8     0.00449481       -24.0785823679 -1.91E-03
    16 OT LS       0.13E+00    4.9                      -24.0793063344
    17 OT CG       0.13E+00    9.7     0.00249121       -24.0794045255 -8.22E-04
    18 OT LS       0.24E+00    5.2                      -24.0797738105
    19 OT CG       0.24E+00   11.7     0.00135872       -24.0798756039 -4.71E-04
    20 OT LS       0.25E+00    5.9                      -24.0800220742
    21 OT CG       0.25E+00   11.4     0.00088294       -24.0800223591 -1.47E-04
    22 OT LS       0.16E+00    5.9                      -24.0800505303
    23 OT CG       0.16E+00   10.2     0.00068879       -24.0800624353 -4.01E-05
    24 OT LS       0.14E+00    5.2                      -24.0800839744
    25 OT CG       0.14E+00    9.6     0.00037737       -24.0800842695 -2.18E-05
    26 OT LS       0.18E+00    5.2                      -24.0800923155
    27 OT CG       0.18E+00    9.6     0.00023525       -24.0800927532 -8.48E-06
    28 OT LS       0.22E+00    5.2                      -24.0800965129
    29 OT CG       0.22E+00   11.3     0.00014178       -24.0800965814 -3.83E-06
    30 OT LS       0.20E+00    5.9                      -24.0800978624
    31 OT CG       0.20E+00   11.4     0.00009370       -24.0800978723 -1.29E-06
    32 OT LS       0.13E+00    6.0                      -24.0800981626
    33 OT CG       0.13E+00   10.5     0.00006517       -24.0800982505 -3.78E-07
    34 OT LS       0.16E+00    4.9                      -24.0800984602
    35 OT CG       0.16E+00    9.7     0.00003068       -24.0800984645 -2.14E-07
    36 OT LS       0.26E+00    5.0                      -24.0800985306
    37 OT CG       0.26E+00    9.6     0.00001532       -24.0800985427 -7.82E-08
    38 OT LS       0.16E+00    5.0                      -24.0800985499
    39 OT CG       0.16E+00    9.8     0.00000926       -24.0800985574 -1.47E-08
    40 OT LS       0.15E+00    5.4                      -24.0800985619
    41 OT CG       0.15E+00   11.4     0.00000742       -24.0800985614 -3.94E-09
    42 OT LS       0.43E-01    6.1                      -24.0800985574
    43 OT CG       0.43E-01   11.7     0.00000568       -24.0800985632 -1.85E-09
    44 OT LS       0.95E-01    6.0                      -24.0800985639
    45 OT CG       0.95E-01   10.6     0.00000362       -24.0800985642 -9.92E-10

  *** SCF run converged in    45 steps ***


  Electronic density on regular grids:        -14.0000000000        0.0000000000
  Core density on regular grids:               14.0000000000       -0.0000000000
  Total charge density on r-space grids:        0.0000000000
  Total charge density g-space grids:           0.0000000000

  Overlap energy of the core charge distribution:               0.00000076987721
  Self energy of the core charge distribution:                -60.50311084124164
  Core Hamiltonian energy:                                     18.02619740683987
  Hartree energy:                                              25.07152532162304
  Exchange-correlation energy:                                 -6.67415393031961
  Dispersion energy:                                           -0.00055729100351

  Total energy:                                               -24.08009856422464

  outer SCF iter =    1 RMS gradient =   0.36E-05 energy =        -24.0800985642
  outer SCF loop converged in   1 iterations or   45 steps


  Integrated absolute spin density  :                               0.0000000000
  Ideal and single determinant S**2 :                    0.000000       0.000000

 !-----------------------------------------------------------------------------!
                     Mulliken Population Analysis

 #  Atom  Element  Kind  Atomic population (alpha,beta) Net charge  Spin moment
       1     O        1         3.116395     3.116395    -0.232789    -0.000000
       2     H        2         0.425822     0.425822     0.148356    -0.000000
       3     C        3         2.087486     2.087486    -0.174973     0.000000
       4     H        2         0.458065     0.458065     0.083870    -0.000000
       5     H        2         0.454444     0.454444     0.091112    -0.000000
       6     H        2         0.457788     0.457788     0.084424     0.000000
 # Total charge and spin        7.000000     7.000000     0.000000    -0.000000

 !-----------------------------------------------------------------------------!

 !-----------------------------------------------------------------------------!
                           Hirshfeld Charges

  #Atom  Element  Kind  Ref Charge     Population       Spin moment  Net charge
      1       O      1       6.000    3.403   3.403           -0.000     -0.807
      2       H      2       1.000    0.221   0.221           -0.000      0.558
      3       C      3       4.000    2.532   2.532            0.000     -1.063
      4       H      2       1.000    0.281   0.281           -0.000      0.437
      5       H      2       1.000    0.278   0.278           -0.000      0.444
      6       H      2       1.000    0.281   0.281            0.000      0.437

  Total Charge                                                            0.007
 !-----------------------------------------------------------------------------!

 ENERGY| Total FORCE_EVAL ( QS ) energy (a.u.):              -24.080098564384500


 --------  Informations at step =     0 ------------
  Optimization Method        =                 BFGS
  Total Energy               =       -24.0800985644
  Used time                  =              383.408
 ---------------------------------------------------

 --------------------------
 OPTIMIZATION STEP:      1
 --------------------------

 Spin 1

 Number of electrons:                                                          7
 Number of occupied orbitals:                                                  7
 Number of molecular orbitals:                                                 7

 Spin 2

 Number of electrons:                                                          7
 Number of occupied orbitals:                                                  7
 Number of molecular orbitals:                                                 7

 Number of orbital functions:                                                 46
 Number of independent orbital functions:                                     46

 Parameters for the always stable predictor-corrector (ASPC) method:

  ASPC order: 0

  B(1) =   1.000000

 Parameters for the always stable predictor-corrector (ASPC) method:

  ASPC order: 0

  B(1) =   1.000000

 Extrapolation method: ASPC


 SCF WAVEFUNCTION OPTIMIZATION

  ----------------------------------- OT ---------------------------------------
  Minimizer      : CG                  : conjugate gradient
  Preconditioner : FULL_ALL            : diagonalization, state selective
  Precond_solver : DEFAULT
  Line search    : 2PNT                : 2 energies, one gradient
  stepsize       :    0.15000000                  energy_gap     :    0.08000000
  eps_taylor     :   0.10000E-15                  max_taylor     :             4
  ----------------------------------- OT ---------------------------------------

  Step     Update method      Time    Convergence         Total energy    Change
  ------------------------------------------------------------------------------
     1 OT CG       0.15E+00    9.2     0.00151121       -24.0801485495 -2.41E+01
     2 OT LS       0.44E+00    6.3                      -24.0803315515
     3 OT CG       0.44E+00   10.1     0.00054518       -24.0804722769 -3.24E-04
     4 OT LS       0.19E+00    4.9                      -24.0804605015
     5 OT CG       0.19E+00   10.2     0.00011923       -24.0804907764 -1.85E-05
     6 OT LS       0.32E+00    4.9                      -24.0804920076
     7 OT CG       0.32E+00   10.2     0.00001837       -24.0804922320 -1.46E-06
     8 OT LS       0.25E+00    5.4                      -24.0804922568
     9 OT CG       0.25E+00   12.2     0.00000475       -24.0804922592 -2.72E-08

  *** SCF run converged in     9 steps ***


  Electronic density on regular grids:        -14.0000000000        0.0000000000
  Core density on regular grids:               14.0000000000       -0.0000000000
  Total charge density on r-space grids:       -0.0000000000
  Total charge density g-space grids:          -0.0000000000

  Overlap energy of the core charge distribution:               0.00000079251078
  Self energy of the core charge distribution:                -60.50311084124164
  Core Hamiltonian energy:                                     18.05338743835078
  Hartree energy:                                              25.05176070322484
  Exchange-correlation energy:                                 -6.68196440762401
  Dispersion energy:                                           -0.00056594440946

  Total energy:                                               -24.08049225918872

  outer SCF iter =    1 RMS gradient =   0.47E-05 energy =        -24.0804922592
  outer SCF loop converged in   1 iterations or    9 steps


  Integrated absolute spin density  :                               0.0000000000
  Ideal and single determinant S**2 :                    0.000000      -0.000000

 !-----------------------------------------------------------------------------!
                     Mulliken Population Analysis

 #  Atom  Element  Kind  Atomic population (alpha,beta) Net charge  Spin moment
       1     O        1         3.109863     3.109863    -0.219725     0.000000
       2     H        2         0.428681     0.428681     0.142638    -0.000000
       3     C        3         2.089444     2.089444    -0.178889     0.000000
       4     H        2         0.458968     0.458968     0.082064     0.000000
       5     H        2         0.454283     0.454283     0.091435     0.000000
       6     H        2         0.458761     0.458761     0.082478     0.000000
 # Total charge and spin        7.000000     7.000000    -0.000000     0.000000

 !-----------------------------------------------------------------------------!

 !-----------------------------------------------------------------------------!
                           Hirshfeld Charges

  #Atom  Element  Kind  Ref Charge     Population       Spin moment  Net charge
      1       O      1       6.000    3.396   3.396            0.000     -0.791
      2       H      2       1.000    0.222   0.222           -0.000      0.556
      3       C      3       4.000    2.537   2.537            0.000     -1.074
      4       H      2       1.000    0.281   0.281            0.000      0.437
      5       H      2       1.000    0.279   0.279            0.000      0.443
      6       H      2       1.000    0.282   0.282            0.000      0.437

  Total Charge                                                            0.007
 !-----------------------------------------------------------------------------!

 ENERGY| Total FORCE_EVAL ( QS ) energy (a.u.):              -24.080492261332246


 --------  Informations at step =     1 ------------
  Optimization Method        =                 BFGS
  Total Energy               =       -24.0804922613
  Real energy change         =        -0.0003936969
  Predicted change in energy =        -0.0006327892
  Scaling factor             =         0.0000000000
  Step size                  =         0.0441485049
  Trust radius               =         0.4724315332
  Decrease in energy         =                  YES
  Used time                  =               91.936

  Convergence check :
  Max. step size             =         0.0441485049
  Conv. limit for step size  =         0.0030000000
  Convergence in step size   =                   NO
  RMS step size              =         0.0214371681
  Conv. limit for RMS step   =         0.0015000000
  Convergence in RMS step    =                   NO
  Max. gradient              =         0.0091392155
  Conv. limit for gradients  =         0.0004500000
  Conv. for gradients        =                   NO
  RMS gradient               =         0.0028472429
  Conv. limit for RMS grad.  =         0.0003000000
  Conv. for gradients        =                   NO
 ---------------------------------------------------

 --------------------------
 OPTIMIZATION STEP:      2
 --------------------------

 Spin 1

 Number of electrons:                                                          7
 Number of occupied orbitals:                                                  7
 Number of molecular orbitals:                                                 7

 Spin 2

 Number of electrons:                                                          7
 Number of occupied orbitals:                                                  7
 Number of molecular orbitals:                                                 7

 Number of orbital functions:                                                 46
 Number of independent orbital functions:                                     46

 Parameters for the always stable predictor-corrector (ASPC) method:

  ASPC order: 0

  B(1) =   2.000000
  B(2) =  -1.000000

 Parameters for the always stable predictor-corrector (ASPC) method:

  ASPC order: 0

  B(1) =   2.000000
  B(2) =  -1.000000

 Extrapolation method: ASPC


 SCF WAVEFUNCTION OPTIMIZATION

  ----------------------------------- OT ---------------------------------------
  Minimizer      : CG                  : conjugate gradient
  Preconditioner : FULL_ALL            : diagonalization, state selective
  Precond_solver : DEFAULT
  Line search    : 2PNT                : 2 energies, one gradient
  stepsize       :    0.15000000                  energy_gap     :    0.08000000
  eps_taylor     :   0.10000E-15                  max_taylor     :             4
  ----------------------------------- OT ---------------------------------------

  Step     Update method      Time    Convergence         Total energy    Change
  ------------------------------------------------------------------------------
     1 OT CG       0.15E+00    8.6     0.00178233       -24.0801740572 -2.41E+01
     2 OT LS       0.48E+00    4.9                      -24.0804325423
     3 OT CG       0.48E+00   10.1     0.00030131       -24.0806604739 -4.86E-04
     4 OT LS       0.25E+00    4.9                      -24.0806622249
     5 OT CG       0.25E+00   10.1     0.00011491       -24.0806678946 -7.42E-06
     6 OT LS       0.23E+00    4.9                      -24.0806688678
     7 OT CG       0.23E+00   11.2     0.00001231       -24.0806688773 -9.83E-07
     8 OT LS       0.29E+00    5.8                      -24.0806688910
     9 OT CG       0.29E+00   11.8     0.00000412       -24.0806688845 -7.18E-09

  *** SCF run converged in     9 steps ***


  Electronic density on regular grids:        -14.0000000000        0.0000000000
  Core density on regular grids:               14.0000000000       -0.0000000000
  Total charge density on r-space grids:        0.0000000000
  Total charge density g-space grids:           0.0000000000

  Overlap energy of the core charge distribution:               0.00000081347709
  Self energy of the core charge distribution:                -60.50311084124164
  Core Hamiltonian energy:                                     18.07615105264959
  Hartree energy:                                              25.03490897845285
  Exchange-correlation energy:                                 -6.68806072923112
  Dispersion energy:                                           -0.00055815858413

  Total energy:                                               -24.08066888447735

  outer SCF iter =    1 RMS gradient =   0.41E-05 energy =        -24.0806688845
  outer SCF loop converged in   1 iterations or    9 steps


  Integrated absolute spin density  :                               0.0000000000
  Ideal and single determinant S**2 :                    0.000000      -0.000000

 !-----------------------------------------------------------------------------!
                     Mulliken Population Analysis

 #  Atom  Element  Kind  Atomic population (alpha,beta) Net charge  Spin moment
       1     O        1         3.107767     3.107767    -0.215533    -0.000000
       2     H        2         0.430343     0.430343     0.139313    -0.000000
       3     C        3         2.089462     2.089462    -0.178925     0.000000
       4     H        2         0.459116     0.459116     0.081767     0.000000
       5     H        2         0.454514     0.454514     0.090973     0.000000
       6     H        2         0.458797     0.458797     0.082405     0.000000
 # Total charge and spin        7.000000     7.000000    -0.000000    -0.000000

 !-----------------------------------------------------------------------------!

 !-----------------------------------------------------------------------------!
                           Hirshfeld Charges

  #Atom  Element  Kind  Ref Charge     Population       Spin moment  Net charge
      1       O      1       6.000    3.398   3.398           -0.000     -0.797
      2       H      2       1.000    0.222   0.222           -0.000      0.556
      3       C      3       4.000    2.534   2.534            0.000     -1.068
      4       H      2       1.000    0.282   0.282            0.000      0.437
      5       H      2       1.000    0.278   0.278           -0.000      0.443
      6       H      2       1.000    0.282   0.282            0.000      0.436

  Total Charge                                                            0.007
 !-----------------------------------------------------------------------------!

 ENERGY| Total FORCE_EVAL ( QS ) energy (a.u.):              -24.080668886142448


 --------  Informations at step =     2 ------------
  Optimization Method        =                 BFGS
  Total Energy               =       -24.0806688861
  Real energy change         =        -0.0001766248
  Predicted change in energy =        -0.0002022391
  Scaling factor             =         0.0000000000
  Step size                  =         0.0233346302
  Trust radius               =         0.4724315332
  Decrease in energy         =                  YES
  Used time                  =               90.797

  Convergence check :
  Max. step size             =         0.0233346302
  Conv. limit for step size  =         0.0030000000
  Convergence in step size   =                   NO
  RMS step size              =         0.0101605150
  Conv. limit for RMS step   =         0.0015000000
  Convergence in RMS step    =                   NO
  Max. gradient              =         0.0052095308
  Conv. limit for gradients  =         0.0004500000
  Conv. for gradients        =                   NO
  RMS gradient               =         0.0020379144
  Conv. limit for RMS grad.  =         0.0003000000
  Conv. for gradients        =                   NO
 ---------------------------------------------------

 --------------------------
 OPTIMIZATION STEP:      3
 --------------------------

 Spin 1

 Number of electrons:                                                          7
 Number of occupied orbitals:                                                  7
 Number of molecular orbitals:                                                 7

 Spin 2

 Number of electrons:                                                          7
 Number of occupied orbitals:                                                  7
 Number of molecular orbitals:                                                 7

 Number of orbital functions:                                                 46
 Number of independent orbital functions:                                     46

 Parameters for the always stable predictor-corrector (ASPC) method:

  ASPC order: 1

  B(1) =   2.500000
  B(2) =  -2.000000
  B(3) =   0.500000

 Parameters for the always stable predictor-corrector (ASPC) method:

  ASPC order: 1

  B(1) =   2.500000
  B(2) =  -2.000000
  B(3) =   0.500000

 Extrapolation method: ASPC


 SCF WAVEFUNCTION OPTIMIZATION

  ----------------------------------- OT ---------------------------------------
  Minimizer      : CG                  : conjugate gradient
  Preconditioner : FULL_ALL            : diagonalization, state selective
  Precond_solver : DEFAULT
  Line search    : 2PNT                : 2 energies, one gradient
  stepsize       :    0.15000000                  energy_gap     :    0.08000000
  eps_taylor     :   0.10000E-15                  max_taylor     :             4
  ----------------------------------- OT ---------------------------------------

  Step     Update method      Time    Convergence         Total energy    Change
  ------------------------------------------------------------------------------
     1 OT CG       0.15E+00    7.7     0.00150155       -24.0803789864 -2.41E+01
     2 OT LS       0.48E+00    4.9                      -24.0805627058
     3 OT CG       0.48E+00   10.2     0.00031905       -24.0807268361 -3.48E-04
     4 OT LS       0.19E+00    4.9                      -24.0807195907
     5 OT CG       0.19E+00   10.1     0.00007877       -24.0807332123 -6.38E-06
     6 OT LS       0.28E+00    4.9                      -24.0807337222
     7 OT CG       0.28E+00   10.5     0.00001575       -24.0807337772 -5.65E-07
     8 OT LS       0.26E+00    6.1                      -24.0807337975
     9 OT CG       0.26E+00   11.6     0.00000401       -24.0807337971 -1.99E-08

  *** SCF run converged in     9 steps ***


  Electronic density on regular grids:        -14.0000000000        0.0000000000
  Core density on regular grids:               14.0000000000       -0.0000000000
  Total charge density on r-space grids:        0.0000000000
  Total charge density g-space grids:           0.0000000000

  Overlap energy of the core charge distribution:               0.00000076877179
  Self energy of the core charge distribution:                -60.50311084124164
  Core Hamiltonian energy:                                     18.07200799434787
  Hartree energy:                                              25.03747620393269
  Exchange-correlation energy:                                 -6.68655090758504
  Dispersion energy:                                           -0.00055701535797

  Total energy:                                               -24.08073379713230

  outer SCF iter =    1 RMS gradient =   0.40E-05 energy =        -24.0807337971
  outer SCF loop converged in   1 iterations or    9 steps


  Integrated absolute spin density  :                               0.0000000000
  Ideal and single determinant S**2 :                    0.000000       0.000000

 !-----------------------------------------------------------------------------!
                     Mulliken Population Analysis

 #  Atom  Element  Kind  Atomic population (alpha,beta) Net charge  Spin moment
       1     O        1         3.107863     3.107863    -0.215727    -0.000000
       2     H        2         0.429726     0.429726     0.140548    -0.000000
       3     C        3         2.090948     2.090948    -0.181895    -0.000000
       4     H        2         0.458951     0.458951     0.082097    -0.000000
       5     H        2         0.454130     0.454130     0.091740    -0.000000
       6     H        2         0.458382     0.458382     0.083237     0.000000
 # Total charge and spin        7.000000     7.000000     0.000000    -0.000000

 !-----------------------------------------------------------------------------!

 !-----------------------------------------------------------------------------!
                           Hirshfeld Charges

  #Atom  Element  Kind  Ref Charge     Population       Spin moment  Net charge
      1       O      1       6.000    3.399   3.399           -0.000     -0.798
      2       H      2       1.000    0.222   0.222           -0.000      0.556
[...]

 Spin 2

 Number of electrons:                                                          7
 Number of occupied orbitals:                                                  7
 Number of molecular orbitals:                                                 7

 Number of orbital functions:                                                 46
 Number of independent orbital functions:                                     46

 Parameters for the always stable predictor-corrector (ASPC) method:

  ASPC order: 3

  B(1) =   3.000000
  B(2) =  -3.428571
  B(3) =   1.928571
  B(4) =  -0.571429
  B(5) =   0.071429

 Parameters for the always stable predictor-corrector (ASPC) method:

  ASPC order: 3

  B(1) =   3.000000
  B(2) =  -3.428571
  B(3) =   1.928571
  B(4) =  -0.571429
  B(5) =   0.071429

 Extrapolation method: ASPC


 SCF WAVEFUNCTION OPTIMIZATION

  ----------------------------------- OT ---------------------------------------
  Minimizer      : CG                  : conjugate gradient
  Preconditioner : FULL_ALL            : diagonalization, state selective
  Precond_solver : DEFAULT
  Line search    : 2PNT                : 2 energies, one gradient
  stepsize       :    0.15000000                  energy_gap     :    0.08000000
  eps_taylor     :   0.10000E-15                  max_taylor     :             4
  ----------------------------------- OT ---------------------------------------

  Step     Update method      Time    Convergence         Total energy    Change
  ------------------------------------------------------------------------------
     1 OT CG       0.15E+00    7.7     0.00015162       -24.0809598131 -2.41E+01
     2 OT LS       0.40E+00    4.9                      -24.0809616172
     3 OT CG       0.40E+00   10.9     0.00006583       -24.0809627716 -2.96E-06
     4 OT LS       0.24E+00    5.9                      -24.0809629493
     5 OT CG       0.24E+00   11.9     0.00001120       -24.0809631035 -3.32E-07
     6 OT LS       0.20E+00    5.9                      -24.0809631115
     7 OT CG       0.20E+00   11.7     0.00000296       -24.0809631118 -8.28E-09

  *** SCF run converged in     7 steps ***


  Electronic density on regular grids:        -14.0000000000        0.0000000000
  Core density on regular grids:               14.0000000000       -0.0000000000
  Total charge density on r-space grids:        0.0000000000
  Total charge density g-space grids:           0.0000000000

  Overlap energy of the core charge distribution:               0.00000073450364
  Self energy of the core charge distribution:                -60.50311084124164
  Core Hamiltonian energy:                                     18.06734741712489
  Hartree energy:                                              25.04044423130016
  Exchange-correlation energy:                                 -6.68508283596074
  Dispersion energy:                                           -0.00056181747682

  Total energy:                                               -24.08096311175051

  outer SCF iter =    1 RMS gradient =   0.30E-05 energy =        -24.0809631118
  outer SCF loop converged in   1 iterations or    7 steps


  Integrated absolute spin density  :                               0.0000000000
  Ideal and single determinant S**2 :                    0.000000      -0.000000

 !-----------------------------------------------------------------------------!
                     Mulliken Population Analysis

 #  Atom  Element  Kind  Atomic population (alpha,beta) Net charge  Spin moment
       1     O        1         3.107644     3.107644    -0.215288     0.000000
       2     H        2         0.429160     0.429160     0.141680     0.000000
       3     C        3         2.092453     2.092453    -0.184905    -0.000000
       4     H        2         0.458459     0.458459     0.083082    -0.000000
       5     H        2         0.453840     0.453840     0.092321    -0.000000
       6     H        2         0.458445     0.458445     0.083110    -0.000000
 # Total charge and spin        7.000000     7.000000    -0.000000     0.000000

 !-----------------------------------------------------------------------------!

 !-----------------------------------------------------------------------------!
                           Hirshfeld Charges

  #Atom  Element  Kind  Ref Charge     Population       Spin moment  Net charge
      1       O      1       6.000    3.398   3.398            0.000     -0.796
      2       H      2       1.000    0.222   0.222            0.000      0.556
      3       C      3       4.000    2.534   2.534           -0.000     -1.068
      4       H      2       1.000    0.282   0.282           -0.000      0.436
      5       H      2       1.000    0.278   0.278           -0.000      0.443
      6       H      2       1.000    0.282   0.282           -0.000      0.436

  Total Charge                                                            0.007
 !-----------------------------------------------------------------------------!

 ENERGY| Total FORCE_EVAL ( QS ) energy (a.u.):              -24.080963111750513


 -------------------------------------------------------------------------------
 -                                                                             -
 -                                DBCSR STATISTICS                             -
 -                                                                             -
 -------------------------------------------------------------------------------
 COUNTER                                    TOTAL       BLAS       SMM       ACC
 flops     5 x     7 x     7               758520     100.0%      0.0%      0.0%
 flops    13 x     5 x     7              1321320     100.0%      0.0%      0.0%
 flops    10 x     7 x     5              1456000     100.0%      0.0%      0.0%
 flops     7 x     7 x     7              1489992     100.0%      0.0%      0.0%
 flops    10 x     7 x     7              1517040     100.0%      0.0%      0.0%
 flops     5 x     5 x     7              1694000     100.0%      0.0%      0.0%
 flops    10 x     7 x    13              1892800     100.0%      0.0%      0.0%
 flops     5 x    13 x     7              2202200     100.0%      0.0%      0.0%
 flops     7 x     7 x     5              2214800     100.0%      0.0%      0.0%
 flops     7 x     7 x    13              2879240     100.0%      0.0%      0.0%
 flops    13 x    13 x     7              3435432     100.0%      0.0%      0.0%
 flops    31 x     7 x     5              4513600     100.0%      0.0%      0.0%
 flops    31 x     7 x     7              4702824     100.0%      0.0%      0.0%
 flops    31 x     7 x    13              5867680     100.0%      0.0%      0.0%
 flops     5 x     7 x     5              6378400     100.0%      0.0%      0.0%
 flops    13 x     7 x     5              7345520     100.0%      0.0%      0.0%
 flops     5 x     7 x    13              8291920     100.0%      0.0%      0.0%
 flops    13 x     7 x    13              9549176     100.0%      0.0%      0.0%
 flops inhomo. stacks                           0       0.0%      0.0%      0.0%
 flops total                        67.510464E+06     100.0%      0.0%      0.0%
 flops max/rank                     46.128124E+06     100.0%      0.0%      0.0%
 matmuls inhomo. stacks                         0       0.0%      0.0%      0.0%
 matmuls total                              69444     100.0%      0.0%      0.0%
 number of processed stacks                 53464     100.0%      0.0%      0.0%
 average stack size                                     1.3       0.0       0.0
 marketing flops                    73.350432E+06
 -------------------------------------------------------------------------------
 # multiplications                           6897
 max memory usage/rank               1.254679E+09
 # max total images/rank                        5
 # max 3D layers                                1
 # MPI messages exchanged                17380440
 MPI messages size (bytes):
  total size                       399.908288E+06
  min size                           0.000000E+00
  max size                           3.224000E+03
  average size                      23.009100E+00
 MPI breakdown and total messages size (bytes):
             size <=      128            16798464                        0
       128 < size <=     8192              581976                399908304
      8192 < size <=    32768                   0                        0
     32768 < size <=   131072                   0                        0
    131072 < size <=  4194304                   0                        0
   4194304 < size <= 16777216                   0                        0
  16777216 < size                               0                        0
 -------------------------------------------------------------------------------

 *** WARNING in dbcsr/mm/dbcsr_mm.F:268 :: Using a non-square number of ***
 *** MPI ranks might lead to poor performance.                          ***
 *** Used ranks: 40                                                     ***
 *** Suggested: 36 81                                                   ***

 -------------------------------------------------------------------------------
 
 MEMORY| Estimated peak process memory [MiB]                                1240

 -------------------------------------------------------------------------------
 ----                             MULTIGRID INFO                            ----
 -------------------------------------------------------------------------------
 count for grid        1:         204163          cutoff [a.u.]          600.00
 count for grid        2:         245066          cutoff [a.u.]          200.00
 count for grid        3:         221674          cutoff [a.u.]           66.67
 count for grid        4:         147280          cutoff [a.u.]           22.22
 count for grid        5:          50053          cutoff [a.u.]            7.41
 total gridlevel count  :         868236

 -------------------------------------------------------------------------------
 -                                                                             -
 -                         MESSAGE PASSING PERFORMANCE                         -
 -                                                                             -
 -------------------------------------------------------------------------------

 ROUTINE             CALLS      AVE VOLUME [Bytes]
 MP_Group              665
 MP_Bcast             3030                 183841.
 MP_Allreduce        44408                    120.
 MP_Sync               213
 MP_Alltoall         37192                9687754.
 MP_SendRecv          2496                     60.
 MP_ISendRecv        83070                 217280.
 MP_Wait            815870
 MP_comm_split         208
 MP_ISend           968416                  73369.
 MP_IRecv           963170                  73677.
 MP_Recv               120                    288.
 MP_Memory          874582
 -------------------------------------------------------------------------------


 -------------------------------------------------------------------------------
 -                                                                             -
 -                           R E F E R E N C E S                               -
 -                                                                             -
 -------------------------------------------------------------------------------
 
 CP2K version 7.0 (Development Version), the CP2K developers group (2018).
 CP2K is freely available from https://www.cp2k.org/ .

 Schuett, Ole; Messmer, Peter; Hutter, Juerg; VandeVondele, Joost. 
 Electronic Structure Calculations on Graphics Processing Units, John Wiley & Sons, Ltd, 173-190 (2016). 
 GPU-Accelerated Sparse Matrix-Matrix Multiplication for Linear Scaling Density Functional Theory.
 http://dx.doi.org/10.1002/9781118670712.ch8


 Borstnik, U; VandeVondele, J; Weber, V; Hutter, J. 
 PARALLEL COMPUTING, 40 (5-6), 47-58 (2014). 
 Sparse matrix multiplication: The distributed block-compressed sparse
 row library.
 http://dx.doi.org/10.1016/j.parco.2014.03.012


 Hutter, J; Iannuzzi, M; Schiffmann, F; VandeVondele, J. 
 WILEY INTERDISCIPLINARY REVIEWS-COMPUTATIONAL MOLECULAR SCIENCE, 4 (1), 15-25 (2014). 
 CP2K: atomistic simulations of condensed matter systems.
 http://dx.doi.org/10.1002/wcms.1159


 Grimme, S; Ehrlich, S; Goerigk, L. 
 JOURNAL OF COMPUTATIONAL CHEMISTRY, 32, 1456 (2011). 
 Effect of the damping function in dispersion corrected density functional theory.
 http://dx.doi.org/10.1002/jcc.21759


 Grimme, S; Antony, J; Ehrlich, S; Krieg, H. 
 JOURNAL OF CHEMICAL PHYSICS, 132 (15), 154104 (2010). 
 A consistent and accurate ab initio parametrization of density
 functional dispersion correction (DFT-D) for the 94 elements H-Pu.
 http://dx.doi.org/10.1063/1.3382344


 VandeVondele, J; Hutter, J. 
 JOURNAL OF CHEMICAL PHYSICS, 127 (11), 114105 (2007). 
 Gaussian basis sets for accurate calculations on molecular systems in
 gas and condensed phases.
 http://dx.doi.org/10.1063/1.2770708


 Krack, M. 
 THEORETICAL CHEMISTRY ACCOUNTS, 114 (1-3), 145-152 (2005). 
 Pseudopotentials for H to Kr optimized for gradient-corrected
 exchange-correlation functionals.
 http://dx.doi.org/10.1007/s00214-005-0655-y


 VandeVondele, J; Krack, M; Mohamed, F; Parrinello, M; Chassaing, T;
 Hutter, J. COMPUTER PHYSICS COMMUNICATIONS, 167 (2), 103-128 (2005). 
 QUICKSTEP: Fast and accurate density functional calculations using a
 mixed Gaussian and plane waves approach.
 http://dx.doi.org/10.1016/j.cpc.2004.12.014


 Frigo, M; Johnson, SG. 
 PROCEEDINGS OF THE IEEE, 93 (2), 216-231 (2005). 
 The design and implementation of FFTW3.
 http://dx.doi.org/10.1109/JPROC.2004.840301


 Kolafa, J. 
 JOURNAL OF COMPUTATIONAL CHEMISTRY, 25 (3), 335-342 (2004). 
 Time-reversible always stable predictor-corrector method for molecular dynamics of polarizable molecules.
 http://dx.doi.org/10.1002/jcc.10385


 VandeVondele, J; Hutter, J. 
 JOURNAL OF CHEMICAL PHYSICS, 118 (10), 4365-4369 (2003). 
 An efficient orbital transformation method for electronic structure
 calculations.
 http://dx.doi.org/10.1063/1.1543154


 Hartwigsen, C; Goedecker, S; Hutter, J. 
 PHYSICAL REVIEW B, 58 (7), 3641-3662 (1998). 
 Relativistic separable dual-space Gaussian pseudopotentials from H to Rn.
 http://dx.doi.org/10.1103/PhysRevB.58.3641


 Lippert, G; Hutter, J; Parrinello, M. 
 MOLECULAR PHYSICS, 92 (3), 477-487 (1997). 
 A hybrid Gaussian and plane wave density functional scheme.
 http://dx.doi.org/10.1080/002689797170220


 Perdew, JP; Burke, K; Ernzerhof, M. 
 PHYSICAL REVIEW LETTERS, 77 (18), 3865-3868 (1996). 
 Generalized gradient approximation made simple.
 http://dx.doi.org/10.1103/PhysRevLett.77.3865


 Goedecker, S; Teter, M; Hutter, J. 
 PHYSICAL REVIEW B, 54 (3), 1703-1710 (1996). 
 Separable dual-space Gaussian pseudopotentials.
 http://dx.doi.org/10.1103/PhysRevB.54.1703


 -------------------------------------------------------------------------------
 -                                                                             -
 -                                T I M I N G                                  -
 -                                                                             -
 -------------------------------------------------------------------------------
 SUBROUTINE                       CALLS  ASD         SELF TIME        TOTAL TIME
                                MAXIMUM       AVERAGE  MAXIMUM  AVERAGE  MAXIMUM
 CP2K                                 1  1.0    0.039    0.044 1994.219 1994.221
 cp_geo_opt                           1  2.0    0.002    0.002 1993.211 1993.215
 geoopt_bfgs                          1  3.0    0.006    0.019 1993.210 1993.214
 cp_eval_at                          17  4.0    0.006    0.014 1989.999 1990.009
 qs_forces                           16  5.0    0.011    0.040 1923.602 1923.612
 qs_energies                         17  5.9    0.014    0.038 1838.980 1838.991
 scf_env_do_scf                      17  6.9    0.003    0.031 1753.115 1753.115
 scf_env_do_scf_inner_loop          209  8.0    0.014    0.024 1613.934 1613.946
 rebuild_ks_matrix                  225  9.8    0.001    0.001 1312.082 1312.115
 qs_ks_build_kohn_sham_matrix       225 10.8    0.051    0.097 1312.081 1312.114
 pw_transfer                       7205 13.3    0.820    0.942 1219.445 1249.745
 fft_wrap_pw1pw2                   6755 14.3    0.083    0.096 1212.748 1243.049
 fft_wrap_pw1pw2_600               3915 15.6   88.306   91.072 1161.979 1192.593
 qs_ks_update_qs_env                226  9.0    0.002    0.002 1161.459 1161.505
 fft3d_ps                          6755 16.3  377.503  458.787  989.645 1033.308
 qs_vxc_create                      225 11.8    0.010    0.011  870.831  870.884
 xc_vxc_pw_create                   129 12.6   48.602   54.648  664.503  664.546
 qs_rho_update_rho                  226  9.0    0.002    0.002  624.102  624.136
 calculate_rho_elec                 452 10.0    5.952   16.267  624.100  624.134
 density_rs2pw                      452 11.0    0.035    0.043  572.330  584.372
 xc_rho_set_and_dset_create         225 13.8    7.151    7.514  471.004  484.289
 mp_alltoall_z22v                  6755 18.3  461.186  482.426  461.186  482.426
 rs_pw_transfer                    3634 12.9    0.040    0.052  452.085  454.030
 x_to_yz                           3188 18.0   96.114  105.733  367.472  374.596
 sum_up_and_integrate               129 11.6    4.132    4.960  266.391  266.574
 integrate_v_rspace                 258 12.6    0.875    5.385  262.259  262.628
 potential_pw2rs                    258 13.6    0.372    0.388  256.299  256.691
 yz_to_x                           2857 16.7   54.109   56.832  243.862  254.972
 xc_exc_calc                         96 13.0    0.922    1.049  206.318  206.373
 mp_waitany                       66176 14.8  193.159  203.304  193.159  203.304
 rs_pw_transfer_RS2PW_600           486 12.9   82.984   90.528  188.486  190.491
 qs_ks_update_qs_env_forces          16  6.0    0.000    0.000  150.816  150.817
 init_scf_loop                       17  7.9    0.005    0.006  139.084  139.085
 rs_pw_transfer_PW2RS_600           308 15.0   49.616   52.451  127.784  130.212
 calc_dipsurf_potential             225 11.8    8.825    9.529   88.952   90.495
 pw_scatter_p                      3446 17.0   81.949   86.786   81.949   86.786
 mp_waitall_1                    749694 16.8   65.171   72.188   65.171   72.188
 pw_gather_p                       3309 15.6   49.077   52.405   49.077   52.405
 init_scf_run                        17  6.9    0.002    0.003   48.597   48.598
 scf_env_initial_rho_setup           17  7.9    0.002    0.003   48.595   48.595
 pw_derive                         2172 14.2   45.099   48.506   45.099   48.506
 mp_sum_d                          6171 13.2   40.569   47.340   40.569   47.340
 wfi_extrapolate                     17  8.9    0.003    0.015   45.842   45.848
 rs_pw_transfer_RS2PW_200           452 13.0   14.615   15.612   42.195   42.861
 fft_wrap_pw1pw2_200                710 15.0    3.045    3.572   40.216   42.278
 -------------------------------------------------------------------------------

 The number of warnings for this run is : 1
 
 -------------------------------------------------------------------------------
  **** **** ******  **  PROGRAM ENDED AT                 2019-06-24 10:12:56.765
 ***** ** ***  *** **   PROGRAM RAN ON            blg8244.int.ets1.calculquebec.
 **    ****   ******    PROGRAM RAN BY                                       rzk
 ***** **    ** ** **   PROGRAM PROCESS ID                                434996
  **** **  *******  **  PROGRAM STOPPED IN /scratch/rzk/rzk/GaN-carbene/443-adat
                                           oms-both-2x2/02-Methanol/00-Gas
