 DBCSR| Multiplication driver                                               BLAS
 DBCSR| Multrec recursion limit                                              512
 DBCSR| Multiplication stack size                                           1000
 DBCSR| Maximum elements for images                                    UNLIMITED
 DBCSR| Multiplicative factor virtual images                                   1
 DBCSR| Multiplication size stacks                                             3
 DBCSR| Number of 3D layers                                               SINGLE
 DBCSR| Use MPI memory allocation                                              T
 DBCSR| Use RMA algorithm                                                      F
 DBCSR| Use Communication thread                                               T
 DBCSR| Communication thread load                                             87


  **** **** ******  **  PROGRAM STARTED AT               2019-05-23 12:56:54.353
 ***** ** ***  *** **   PROGRAM STARTED ON        blg9144.int.ets1.calculquebec.
 **    ****   ******    PROGRAM STARTED BY                                   rzk
 ***** **    ** ** **   PROGRAM PROCESS ID                                371802
  **** **  *******  **  PROGRAM STARTED IN /lustre03/project/6004141/rzk/GaN-car
                                           bene/01-Methanol/00-vacuum-methanol

 CP2K| version string:                    CP2K version 7.0 (Development Version)
 CP2K| source code revision number:                                    svn:18619
 CP2K| cp2kflags: libint fftw3 libxc parallel mpi3 scalapack mkl                
 CP2K| is freely available from                            https://www.cp2k.org/
 CP2K| Program compiled at                          Sun Apr  7 00:48:11 EDT 2019
 CP2K| Program compiled on                      beluga2.int.ets1.calculquebec.ca
 CP2K| Program compiled for                    Beluga-Linux-x86-64-intel-openmpi
 CP2K| Data directory path    /home/rzk/projects/def-rzk/group/cp2k/cp2k-mcgill/
 CP2K| Input file name                                                 start.inp
 
 GLOBAL| Force Environment number                                              1
 GLOBAL| Basis set file name                                        BASIS_MOLOPT
 GLOBAL| Potential file name                                      GTH_POTENTIALS
 GLOBAL| MM Potential file name                                     MM_POTENTIAL
 GLOBAL| Coordinate file name                                      __STD_INPUT__
 GLOBAL| Method name                                                        CP2K
 GLOBAL| Project name                                                       TEST
 GLOBAL| Preferred FFT library                                             FFTW3
 GLOBAL| Preferred diagonalization lib.                                       SL
 GLOBAL| Run type                                                        GEO_OPT
 GLOBAL| All-to-all communication in single precision                          F
 GLOBAL| FFTs using library dependent lengths                                  F
 GLOBAL| Global print level                                               MEDIUM
 GLOBAL| MPI I/O enabled                                                       T
 GLOBAL| Total number of message passing processes                            40
 GLOBAL| Number of threads for this process                                    1
 GLOBAL| This output is from process                                           0
 GLOBAL| CPU model name :  Intel(R) Xeon(R) Gold 6148 CPU @ 2.40GHz

 MEMORY| system memory details [Kb]
 MEMORY|                        rank 0           min           max       average
 MEMORY| MemTotal            196614300     196614300     196614300     196614300
 MEMORY| MemFree             148990484     148990484     148990484     148990484
 MEMORY| Buffers                     0             0             0             0
 MEMORY| Cached               29489464      29489464      29489464      29489464
 MEMORY| Slab                  5213780       5213780       5213780       5213780
 MEMORY| SReclaimable           427296        427296        427296        427296
 MEMORY| MemLikelyFree       178907244     178907244     178907244     178907244


 *** Fundamental physical constants (SI units) ***

 *** Literature: B. J. Mohr and B. N. Taylor,
 ***             CODATA recommended values of the fundamental physical
 ***             constants: 2006, Web Version 5.1
 ***             http://physics.nist.gov/constants

 Speed of light in vacuum [m/s]                             2.99792458000000E+08
 Magnetic constant or permeability of vacuum [N/A**2]       1.25663706143592E-06
 Electric constant or permittivity of vacuum [F/m]          8.85418781762039E-12
 Planck constant (h) [J*s]                                  6.62606896000000E-34
 Planck constant (h-bar) [J*s]                              1.05457162825177E-34
 Elementary charge [C]                                      1.60217648700000E-19
 Electron mass [kg]                                         9.10938215000000E-31
 Electron g factor [ ]                                     -2.00231930436220E+00
 Proton mass [kg]                                           1.67262163700000E-27
 Fine-structure constant                                    7.29735253760000E-03
 Rydberg constant [1/m]                                     1.09737315685270E+07
 Avogadro constant [1/mol]                                  6.02214179000000E+23
 Boltzmann constant [J/K]                                   1.38065040000000E-23
 Atomic mass unit [kg]                                      1.66053878200000E-27
 Bohr radius [m]                                            5.29177208590000E-11

 *** Conversion factors ***

 [u] -> [a.u.]                                              1.82288848426455E+03
 [Angstrom] -> [Bohr] = [a.u.]                              1.88972613288564E+00
 [a.u.] = [Bohr] -> [Angstrom]                              5.29177208590000E-01
 [a.u.] -> [s]                                              2.41888432650478E-17
 [a.u.] -> [fs]                                             2.41888432650478E-02
 [a.u.] -> [J]                                              4.35974393937059E-18
 [a.u.] -> [N]                                              8.23872205491840E-08
 [a.u.] -> [K]                                              3.15774647902944E+05
 [a.u.] -> [kJ/mol]                                         2.62549961709828E+03
 [a.u.] -> [kcal/mol]                                       6.27509468713739E+02
 [a.u.] -> [Pa]                                             2.94210107994716E+13
 [a.u.] -> [bar]                                            2.94210107994716E+08
 [a.u.] -> [atm]                                            2.90362800883016E+08
 [a.u.] -> [eV]                                             2.72113838565563E+01
 [a.u.] -> [Hz]                                             6.57968392072181E+15
 [a.u.] -> [1/cm] (wave numbers)                            2.19474631370540E+05
 [a.u./Bohr**2] -> [1/cm]                                   5.14048714338585E+03
 

 CELL_TOP| Volume [angstrom^3]:                                         2519.385
 CELL_TOP| Vector a [angstrom     9.737     0.000     0.000    |a| =       9.737
 CELL_TOP| Vector b [angstrom    -4.859     8.416     0.000    |b| =       9.718
 CELL_TOP| Vector c [angstrom     0.000     0.000    30.744    |c| =      30.744
 CELL_TOP| Angle (b,c), alpha [degree]:                                   90.000
 CELL_TOP| Angle (a,c), beta  [degree]:                                   90.000
 CELL_TOP| Angle (a,b), gamma [degree]:                                  120.000
 CELL_TOP| Numerically orthorhombic:                                          NO
 
 GENERATE|  Preliminary Number of Bonds generated:                             0
 GENERATE|  Achieved consistency in connectivity generation.

 CELL| Volume [angstrom^3]:                                             2519.385
 CELL| Vector a [angstrom]:       9.737     0.000     0.000    |a| =       9.737
 CELL| Vector b [angstrom]:      -4.859     8.416     0.000    |b| =       9.718
 CELL| Vector c [angstrom]:       0.000     0.000    30.744    |c| =      30.744
 CELL| Angle (b,c), alpha [degree]:                                       90.000
 CELL| Angle (a,c), beta  [degree]:                                       90.000
 CELL| Angle (a,b), gamma [degree]:                                      120.000
 CELL| Numerically orthorhombic:                                              NO

 CELL_REF| Volume [angstrom^3]:                                         2432.344
 CELL_REF| Vector a [angstrom     9.558     0.000     0.000    |a| =       9.558
 CELL_REF| Vector b [angstrom    -4.779     8.277     0.000    |b| =       9.558
 CELL_REF| Vector c [angstrom     0.000     0.000    30.744    |c| =      30.744
 CELL_REF| Angle (b,c), alpha [degree]:                                   90.000
 CELL_REF| Angle (a,c), beta  [degree]:                                   90.000
 CELL_REF| Angle (a,b), gamma [degree]:                                  120.000
 CELL_REF| Numerically orthorhombic:                                          NO

 *******************************************************************************
 *******************************************************************************
 **                                                                           **
 **     #####                         ##              ##                      **
 **    ##   ##            ##          ##              ##                      **
 **   ##     ##                       ##            ######                    **
 **   ##     ##  ##   ##  ##   #####  ##  ##   ####   ##    #####    #####    **
 **   ##     ##  ##   ##  ##  ##      ## ##   ##      ##   ##   ##  ##   ##   **
 **   ##  ## ##  ##   ##  ##  ##      ####     ###    ##   ######   ######    **
 **    ##  ###   ##   ##  ##  ##      ## ##      ##   ##   ##       ##        **
 **     #######   #####   ##   #####  ##  ##  ####    ##    #####   ##        **
 **           ##                                                    ##        **
 **                                                                           **
 **                                                ... make the atoms dance   **
 **                                                                           **
 **            Copyright (C) by CP2K developers group (2000 - 2018)           **
 **                                                                           **
 *******************************************************************************

 DFT| Spin restricted Kohn-Sham (RKS) calculation                            RKS
 DFT| Multiplicity                                                             1
 DFT| Number of spin states                                                    1
 DFT| Charge                                                                   0
 DFT| Self-interaction correction (SIC)                                       NO
 DFT| Cutoffs: density                                              1.000000E-10
 DFT|          gradient                                             1.000000E-10
 DFT|          tau                                                  1.000000E-10
 DFT|          cutoff_smoothing_range                               0.000000E+00
 DFT| XC density smoothing                                                  NONE
 DFT| XC derivatives                                                          PW
 FUNCTIONAL| ROUTINE=NEW
 FUNCTIONAL| PBE:
 FUNCTIONAL| J.P.Perdew, K.Burke, M.Ernzerhof, Phys. Rev. Letter, vol. 77, n 18,
 FUNCTIONAL|  pp. 3865-3868, (1996){spin unpolarized}                           
 vdW POTENTIAL|                                                   Pair Potential
 vdW POTENTIAL|          DFT-D3 (Version 3.1)
 vdW POTENTIAL|          Potential Form: S. Grimme et al, JCP 132: 154104 (2010)
 vdW POTENTIAL|          Zero Damping
 vdW POTENTIAL|          Cutoff Radius [Bohr]:                             18.90
 vdW POTENTIAL|          s6 Scaling Factor:                               1.0000
 vdW POTENTIAL|          sr6 Scaling Factor:                              1.2170
 vdW POTENTIAL|          s8 Scaling Factor:                               0.7220
 vdW POTENTIAL|          Cutoff for CN calculation:                   0.1000E-05

 QS| Method:                                                                 GPW
 QS| Density plane wave grid type                        NON-SPHERICAL FULLSPACE
 QS| Number of grid levels:                                                    5
 QS| Density cutoff [a.u.]:                                                600.0
 QS| Multi grid cutoff [a.u.]: 1) grid level                               600.0
 QS|                           2) grid level                               200.0
 QS|                           3) grid level                                66.7
 QS|                           4) grid level                                22.2
 QS|                           5) grid level                                 7.4
 QS| Grid level progression factor:                                          3.0
 QS| Relative density cutoff [a.u.]:                                        20.0
 QS| Consistent realspace mapping and integration 
 QS| Interaction thresholds: eps_pgf_orb:                                1.0E-07
 QS|                         eps_filter_matrix:                          0.0E+00
 QS|                         eps_core_charge:                            1.0E-16
 QS|                         eps_rho_gspace:                             1.0E-14
 QS|                         eps_rho_rspace:                             1.0E-14
 QS|                         eps_gvg_rspace:                             1.0E-07
 QS|                         eps_ppl:                                    1.0E-02
 QS|                         eps_ppnl:                                   1.0E-09


 ATOMIC KIND INFORMATION

  1. Atomic kind: H                                     Number of atoms:       4

     Orbital Basis Set                                     DZVP-MOLOPT-SR-GTH-q1

       Number of orbital shell sets:                                           1
       Number of orbital shells:                                               3
       Number of primitive Cartesian functions:                                5
       Number of Cartesian basis functions:                                    5
       Number of spherical basis functions:                                    5
       Norm type:                                                              2

       Normalised Cartesian orbitals:

                        Set   Shell   Orbital            Exponent    Coefficient

                          1       1    2s               10.068468      -0.133023
                                                         2.680223      -0.177618
                                                         0.791502      -0.258419
                                                         0.239116      -0.107525
                                                         0.082193      -0.014019

                          1       2    3s               10.068468       0.344673
                                                         2.680223       1.819821
                                                         0.791502      -0.999069
                                                         0.239116       0.017430
                                                         0.082193       0.082660

                          1       3    3px              10.068468       0.155326
                                                         2.680223       0.367157
                                                         0.791502       0.311480
                                                         0.239116       0.080105
                                                         0.082193       0.033440
                          1       3    3py              10.068468       0.155326
                                                         2.680223       0.367157
                                                         0.791502       0.311480
                                                         0.239116       0.080105
                                                         0.082193       0.033440
                          1       3    3pz              10.068468       0.155326
                                                         2.680223       0.367157
                                                         0.791502       0.311480
                                                         0.239116       0.080105
                                                         0.082193       0.033440

     GTH Potential information for                                    GTH-PBE-q1

       Description:                       Goedecker-Teter-Hutter pseudopotential
                                           Goedecker et al., PRB 54, 1703 (1996)
                                          Hartwigsen et al., PRB 58, 3641 (1998)
                                                      Krack, TCA 114, 145 (2005)

       Gaussian exponent of the core charge distribution:              12.500000
       Electronic configuration (s p d ...):                                   1

       Parameters of the local part of the GTH pseudopotential:

                          rloc        C1          C2          C3          C4
                        0.200000   -4.178900    0.724463

  2. Atomic kind: C                                     Number of atoms:       1

     Orbital Basis Set                                     DZVP-MOLOPT-SR-GTH-q4

       Number of orbital shell sets:                                           1
       Number of orbital shells:                                               5
       Number of primitive Cartesian functions:                                5
       Number of Cartesian basis functions:                                   14
       Number of spherical basis functions:                                   13
       Norm type:                                                              2

       Normalised Cartesian orbitals:

                        Set   Shell   Orbital            Exponent    Coefficient

                          1       1    2s                5.605331       0.322515
                                                         2.113016       0.213043
                                                         0.769911      -0.209686
                                                         0.348157      -0.219794
                                                         0.128212      -0.022789

                          1       2    3s                5.605331       0.552234
                                                         2.113016       0.082072
                                                         0.769911       0.007843
                                                         0.348157       0.136893
                                                         0.128212       0.074283

                          1       3    3px               5.605331      -0.703879
                                                         2.113016      -0.642521
                                                         0.769911      -0.374851
                                                         0.348157      -0.139743
                                                         0.128212      -0.027849
                          1       3    3py               5.605331      -0.703879
                                                         2.113016      -0.642521
                                                         0.769911      -0.374851
                                                         0.348157      -0.139743
                                                         0.128212      -0.027849
                          1       3    3pz               5.605331      -0.703879
                                                         2.113016      -0.642521
                                                         0.769911      -0.374851
                                                         0.348157      -0.139743
                                                         0.128212      -0.027849

                          1       4    4px               5.605331      -0.480376
                                                         2.113016      -0.552894
                                                         0.769911      -0.316145
                                                         0.348157       0.210505
                                                         0.128212       0.076095
                          1       4    4py               5.605331      -0.480376
                                                         2.113016      -0.552894
                                                         0.769911      -0.316145
                                                         0.348157       0.210505
                                                         0.128212       0.076095
                          1       4    4pz               5.605331      -0.480376
                                                         2.113016      -0.552894
                                                         0.769911      -0.316145
                                                         0.348157       0.210505
                                                         0.128212       0.076095

                          1       5    4dx2              5.605331       0.640026
                                                         2.113016       0.274300
                                                         0.769911       0.446711
                                                         0.348157       0.028674
                                                         0.128212       0.029790
                          1       5    4dxy              5.605331       1.108557
                                                         2.113016       0.475102
                                                         0.769911       0.773726
                                                         0.348157       0.049666
                                                         0.128212       0.051599
                          1       5    4dxz              5.605331       1.108557
                                                         2.113016       0.475102
                                                         0.769911       0.773726
                                                         0.348157       0.049666
                                                         0.128212       0.051599
                          1       5    4dy2              5.605331       0.640026
                                                         2.113016       0.274300
                                                         0.769911       0.446711
                                                         0.348157       0.028674
                                                         0.128212       0.029790
                          1       5    4dyz              5.605331       1.108557
                                                         2.113016       0.475102
                                                         0.769911       0.773726
                                                         0.348157       0.049666
                                                         0.128212       0.051599
                          1       5    4dz2              5.605331       0.640026
                                                         2.113016       0.274300
                                                         0.769911       0.446711
                                                         0.348157       0.028674
                                                         0.128212       0.029790

     GTH Potential information for                                    GTH-PBE-q4

       Description:                       Goedecker-Teter-Hutter pseudopotential
                                           Goedecker et al., PRB 54, 1703 (1996)
                                          Hartwigsen et al., PRB 58, 3641 (1998)
                                                      Krack, TCA 114, 145 (2005)

       Gaussian exponent of the core charge distribution:               4.364419
       Electronic configuration (s p d ...):                               2   2

       Parameters of the local part of the GTH pseudopotential:

                          rloc        C1          C2          C3          C4
                        0.338471   -8.803674    1.339211

       Parameters of the non-local part of the GTH pseudopotential:

                   l      r(l)      h(i,j,l)

                   0    0.302576    9.622487
                   1    0.291507

  3. Atomic kind: O                                     Number of atoms:       1

     Orbital Basis Set                                     DZVP-MOLOPT-SR-GTH-q6

       Number of orbital shell sets:                                           1
       Number of orbital shells:                                               5
       Number of primitive Cartesian functions:                                5
       Number of Cartesian basis functions:                                   14
       Number of spherical basis functions:                                   13
       Norm type:                                                              2

       Normalised Cartesian orbitals:

                        Set   Shell   Orbital            Exponent    Coefficient

                          1       1    2s               10.389228       0.396646
                                                         3.849621       0.208811
                                                         1.388401      -0.301641
                                                         0.496955      -0.274061
                                                         0.162492      -0.033677

                          1       2    3s               10.389228       0.303673
                                                         3.849621       0.240943
                                                         1.388401      -0.313066
                                                         0.496955      -0.043055
                                                         0.162492       0.213991

                          1       3    3px              10.389228      -1.530415
                                                         3.849621      -1.371928
                                                         1.388401      -0.761951
                                                         0.496955      -0.253695
                                                         0.162492      -0.035541
                          1       3    3py              10.389228      -1.530415
                                                         3.849621      -1.371928
                                                         1.388401      -0.761951
                                                         0.496955      -0.253695
                                                         0.162492      -0.035541
                          1       3    3pz              10.389228      -1.530415
                                                         3.849621      -1.371928
                                                         1.388401      -0.761951
                                                         0.496955      -0.253695
                                                         0.162492      -0.035541

                          1       4    4px              10.389228      -0.565392
                                                         3.849621      -0.038231
                                                         1.388401      -0.382373
                                                         0.496955       0.179070
                                                         0.162492       0.122714
                          1       4    4py              10.389228      -0.565392
                                                         3.849621      -0.038231
                                                         1.388401      -0.382373
                                                         0.496955       0.179070
                                                         0.162492       0.122714
                          1       4    4pz              10.389228      -0.565392
                                                         3.849621      -0.038231
                                                         1.388401      -0.382373
                                                         0.496955       0.179070
                                                         0.162492       0.122714

                          1       5    4dx2             10.389228       1.867377
                                                         3.849621       0.670994
                                                         1.388401       1.353441
                                                         0.496955       0.273538
                                                         0.162492       0.006620
                          1       5    4dxy             10.389228       3.234392
                                                         3.849621       1.162195
                                                         1.388401       2.344229
                                                         0.496955       0.473781
                                                         0.162492       0.011466
                          1       5    4dxz             10.389228       3.234392
                                                         3.849621       1.162195
                                                         1.388401       2.344229
                                                         0.496955       0.473781
                                                         0.162492       0.011466
                          1       5    4dy2             10.389228       1.867377
                                                         3.849621       0.670994
                                                         1.388401       1.353441
                                                         0.496955       0.273538
                                                         0.162492       0.006620
                          1       5    4dyz             10.389228       3.234392
                                                         3.849621       1.162195
                                                         1.388401       2.344229
                                                         0.496955       0.473781
                                                         0.162492       0.011466
                          1       5    4dz2             10.389228       1.867377
                                                         3.849621       0.670994
                                                         1.388401       1.353441
                                                         0.496955       0.273538
                                                         0.162492       0.006620

     GTH Potential information for                                    GTH-PBE-q6

       Description:                       Goedecker-Teter-Hutter pseudopotential
                                           Goedecker et al., PRB 54, 1703 (1996)
                                          Hartwigsen et al., PRB 58, 3641 (1998)
                                                      Krack, TCA 114, 145 (2005)

       Gaussian exponent of the core charge distribution:               8.360253
       Electronic configuration (s p d ...):                               2   4

       Parameters of the local part of the GTH pseudopotential:

                          rloc        C1          C2          C3          C4
                        0.244554  -16.667215    2.487311

       Parameters of the non-local part of the GTH pseudopotential:

                   l      r(l)      h(i,j,l)

                   0    0.220956   18.337458
                   1    0.211332


 MOLECULE KIND INFORMATION


 All atoms are their own molecule, skipping detailed information


 TOTAL NUMBERS AND MAXIMUM NUMBERS

  Total number of            - Atomic kinds:                                   3
                             - Atoms:                                          6
                             - Shell sets:                                     6
                             - Shells:                                        22
                             - Primitive Cartesian functions:                 30
                             - Cartesian basis functions:                     48
                             - Spherical basis functions:                     46

  Maximum angular momentum of- Orbital basis functions:                        2
                             - Local part of the GTH pseudopotential:          2
                             - Non-local part of the GTH pseudopotential:      0


 MODULE QUICKSTEP:  ATOMIC COORDINATES IN angstrom

  Atom  Kind  Element       X           Y           Z          Z(eff)       Mass

       1     1 H    1    3.073584    4.877041   20.444384      1.00       1.0079
       2     1 H    1    4.269401    3.064873   20.416490      1.00       1.0079
       3     1 H    1    2.181959    3.237873   20.595512      1.00       1.0079
       4     2 C    6    3.355151    3.722510   20.836851      4.00      12.0107
       5     3 O    8    3.511350    3.785641   22.256892      6.00      15.9994
       6     1 H    1    4.421050    3.584596   22.488468      1.00       1.0079




 SCF PARAMETERS         Density guess:                                    ATOMIC
                        --------------------------------------------------------
                        max_scf:                                             100
                        max_scf_history:                                       0
                        max_diis:                                              4
                        --------------------------------------------------------
                        eps_scf:                                        5.00E-06
                        eps_scf_history:                                0.00E+00
                        eps_diis:                                       1.00E-01
                        eps_eigval:                                     1.00E-05
                        --------------------------------------------------------
                        level_shift [a.u.]:                                 0.00
                        --------------------------------------------------------
                        Outer loop SCF in use 
                        No variables optimised in outer loop
                        eps_scf                                         5.00E-06
                        max_scf                                               10
                        No outer loop optimization
                        step_size                                       5.00E-01

 PW_GRID| Information for grid number                                          1
 PW_GRID| Grid distributed over                                    40 processors
 PW_GRID| Real space group dimensions                                    40    1
 PW_GRID| the grid is blocked:                                                NO
 PW_GRID| Cutoff [a.u.]                                                    600.0
 PW_GRID| spherical cutoff:                                                   NO
 PW_GRID|   Bounds   1           -100      99                Points:         200
 PW_GRID|   Bounds   2           -100      99                Points:         200
 PW_GRID|   Bounds   3           -324     323                Points:         648
 PW_GRID| Volume element (a.u.^3)  0.6333E-03     Volume (a.u.^3)     16414.2734
 PW_GRID| Grid span                                                    FULLSPACE
 PW_GRID|   Distribution                         Average         Max         Min
 PW_GRID|   G-Vectors                           648000.0      648000      648000
 PW_GRID|   G-Rays                                3240.0        3240        3240
 PW_GRID|   Real Space Points                   648000.0      648000      648000

 PW_GRID| Information for grid number                                          2
 PW_GRID| Grid distributed over                                    40 processors
 PW_GRID| Real space group dimensions                                    40    1
 PW_GRID| the grid is blocked:                                                NO
 PW_GRID| Cutoff [a.u.]                                                    200.0
 PW_GRID| spherical cutoff:                                                   NO
 PW_GRID|   Bounds   1            -60      59                Points:         120
 PW_GRID|   Bounds   2            -60      59                Points:         120
 PW_GRID|   Bounds   3           -187     187                Points:         375
 PW_GRID| Volume element (a.u.^3)  0.3040E-02     Volume (a.u.^3)     16414.2734
 PW_GRID| Grid span                                                    FULLSPACE
 PW_GRID|   Distribution                         Average         Max         Min
 PW_GRID|   G-Vectors                           135000.0      135960      134040
 PW_GRID|   G-Rays                                1125.0        1133        1117
 PW_GRID|   Real Space Points                   135000.0      135000      135000

 PW_GRID| Information for grid number                                          3
 PW_GRID| Grid distributed over                                    40 processors
 PW_GRID| Real space group dimensions                                    40    1
 PW_GRID| the grid is blocked:                                                NO
 PW_GRID| Cutoff [a.u.]                                                     66.7
 PW_GRID| spherical cutoff:                                                   NO
 PW_GRID|   Bounds   1            -36      35                Points:          72
 PW_GRID|   Bounds   2            -36      35                Points:          72
 PW_GRID|   Bounds   3           -108     107                Points:         216
 PW_GRID| Volume element (a.u.^3)  0.1466E-01     Volume (a.u.^3)     16414.2734
 PW_GRID| Grid span                                                    FULLSPACE
 PW_GRID|   Distribution                         Average         Max         Min
 PW_GRID|   G-Vectors                            27993.6       28584       27000
 PW_GRID|   G-Rays                                 388.8         397         375
 PW_GRID|   Real Space Points                    27993.6       31104       15552

 PW_GRID| Information for grid number                                          4
 PW_GRID| Grid distributed over                                    40 processors
 PW_GRID| Real space group dimensions                                    40    1
 PW_GRID| the grid is blocked:                                                NO
 PW_GRID| Cutoff [a.u.]                                                     22.2
 PW_GRID| spherical cutoff:                                                   NO
 PW_GRID|   Bounds   1            -20      19                Points:          40
 PW_GRID|   Bounds   2            -20      19                Points:          40
 PW_GRID|   Bounds   3            -62      62                Points:         125
 PW_GRID| Volume element (a.u.^3)  0.8207E-01     Volume (a.u.^3)     16414.2734
 PW_GRID| Grid span                                                    FULLSPACE
 PW_GRID|   Distribution                         Average         Max         Min
 PW_GRID|   G-Vectors                             5000.0        5360        4640
 PW_GRID|   G-Rays                                 125.0         134         116
 PW_GRID|   Real Space Points                     5000.0        5000        5000

 PW_GRID| Information for grid number                                          5
 PW_GRID| Grid distributed over                                    40 processors
 PW_GRID| Real space group dimensions                                     5    8
 PW_GRID| the grid is blocked:                                                NO
 PW_GRID| Cutoff [a.u.]                                                      7.4
 PW_GRID| spherical cutoff:                                                   NO
 PW_GRID|   Bounds   1            -12      11                Points:          24
 PW_GRID|   Bounds   2            -12      11                Points:          24
 PW_GRID|   Bounds   3            -36      35                Points:          72
 PW_GRID| Volume element (a.u.^3)  0.3958         Volume (a.u.^3)     16414.2734
 PW_GRID| Grid span                                                    FULLSPACE
 PW_GRID|   Distribution                         Average         Max         Min
 PW_GRID|   G-Vectors                             1036.8        1152         864
 PW_GRID|   G-Rays                                  43.2          48          36
 PW_GRID|   Real Space Points                     1036.8        1080         864

 POISSON| Solver                                                        PERIODIC
 POISSON| Periodicity                                                        XYZ

 RS_GRID| Information for grid number                                          1
 RS_GRID|   Bounds   1           -100      99                Points:         200
 RS_GRID|   Bounds   2           -100      99                Points:         200
 RS_GRID|   Bounds   3           -324     323                Points:         648
 RS_GRID| Real space distribution over                                 40 groups
 RS_GRID| Real space distribution along direction                              3
 RS_GRID| Border size                                                         51
 RS_GRID|   Distribution                         Average         Max         Min
 RS_GRID|   Planes                                 118.2         119         118

 RS_GRID| Information for grid number                                          2
 RS_GRID|   Bounds   1            -60      59                Points:         120
 RS_GRID|   Bounds   2            -60      59                Points:         120
 RS_GRID|   Bounds   3           -187     187                Points:         375
 RS_GRID| Real space distribution over                                 40 groups
 RS_GRID| Real space distribution along direction                              3
 RS_GRID| Border size                                                         36
 RS_GRID|   Distribution                         Average         Max         Min
 RS_GRID|   Planes                                  81.4          82          81

 RS_GRID| Information for grid number                                          3
 RS_GRID|   Bounds   1            -36      35                Points:          72
 RS_GRID|   Bounds   2            -36      35                Points:          72
 RS_GRID|   Bounds   3           -108     107                Points:         216
 RS_GRID| Real space fully replicated
 RS_GRID| Group size                                                           1

 RS_GRID| Information for grid number                                          4
 RS_GRID|   Bounds   1            -20      19                Points:          40
 RS_GRID|   Bounds   2            -20      19                Points:          40
 RS_GRID|   Bounds   3            -62      62                Points:         125
 RS_GRID| Real space fully replicated
 RS_GRID| Group size                                                           1

 RS_GRID| Information for grid number                                          5
 RS_GRID|   Bounds   1            -12      11                Points:          24
 RS_GRID|   Bounds   2            -12      11                Points:          24
 RS_GRID|   Bounds   3            -36      35                Points:          72
 RS_GRID| Real space fully replicated
 RS_GRID| Group size                                                           1

 BFGS| Use rational function optimization for step estimation:                NO
 BFGS| Use model Hessian for initial guess:                                  YES
 BFGS| Restart Hessian:                                                       NO
 BFGS| Trust radius:                                                       0.472

 *******************************************************************************
 ***                     STARTING GEOMETRY OPTIMIZATION                      ***
 ***                                   BFGS                                  ***
 *******************************************************************************

 Number of electrons:                                                         14
 Number of occupied orbitals:                                                  7
 Number of molecular orbitals:                                                 7

 Number of orbital functions:                                                 46
 Number of independent orbital functions:                                     46

 Extrapolation method: initial_guess

 Atomic guess: The first density matrix is obtained in terms of atomic orbitals
               and electronic configurations assigned to each atomic kind

 Guess for atomic kind: H

 Electronic structure
    Total number of core electrons                                          0.00
    Total number of valence electrons                                       1.00
    Total number of electrons                                               1.00
    Multiplicity                                                   not specified
    S      1.00
 

 *******************************************************************************
                  Iteration          Convergence                     Energy [au]
 *******************************************************************************
                          1        0.250972E-02                  -0.375256815885
                          2        0.570752E-04                  -0.375258666164
                          3        0.832405E-09                  -0.375258667122

 Energy components [Hartree]           Total Energy ::           -0.375258667122
                                        Band Energy ::           -0.076317618391
                                     Kinetic Energy ::            0.771356566341
                                   Potential Energy ::           -1.146615233463
                                      Virial (-V/T) ::            1.486491829455
                                        Core Energy ::           -0.456090715790
                                          XC Energy ::           -0.314218627334
                                     Coulomb Energy ::            0.395050676003
                       Total Pseudopotential Energy ::           -1.238482237174
                       Local Pseudopotential Energy ::           -1.238482237174
                    Nonlocal Pseudopotential Energy ::            0.000000000000
                                        Confinement ::            0.110349550431

 Orbital energies  State     L     Occupation   Energy[a.u.]          Energy[eV]

                       1     0          1.000      -0.076318           -2.076708
 

 Total Electron Density at R=0:                                         0.425022

 Guess for atomic kind: C

 Electronic structure
    Total number of core electrons                                          2.00
    Total number of valence electrons                                       4.00
    Total number of electrons                                               6.00
    Multiplicity                                                   not specified
    S   [  2.00] 2.00
    P      2.00
 

 *******************************************************************************
                  Iteration          Convergence                     Energy [au]
 *******************************************************************************
                          1        0.261814E-01                  -5.246264729087
                          2        0.905236E-02                  -5.246529568708
                          3        0.681743E-04                  -5.246565167452
                          4        0.792829E-08                  -5.246565169473

 Energy components [Hartree]           Total Energy ::           -5.246565169473
                                        Band Energy ::           -1.058732595430
                                     Kinetic Energy ::            3.518928170589
                                   Potential Energy ::           -8.765493340062
                                      Virial (-V/T) ::            2.490955460053
                                        Core Energy ::           -8.429377169956
                                          XC Energy ::           -1.450183342358
                                     Coulomb Energy ::            4.632995342842
                       Total Pseudopotential Energy ::          -11.978048809389
                       Local Pseudopotential Energy ::          -12.816738187351
                    Nonlocal Pseudopotential Energy ::            0.838689377962
                                        Confinement ::            0.297434688432

 Orbital energies  State     L     Occupation   Energy[a.u.]          Energy[eV]

                       1     0          2.000      -0.410911          -11.181458
 
                       1     1          2.000      -0.118455           -3.223332
 

 Total Electron Density at R=0:                                         0.001337

 Guess for atomic kind: O

 Electronic structure
    Total number of core electrons                                          2.00
    Total number of valence electrons                                       6.00
    Total number of electrons                                               8.00
    Multiplicity                                                   not specified
    S   [  2.00] 2.00
    P      4.00
 

 *******************************************************************************
                  Iteration          Convergence                     Energy [au]
 *******************************************************************************
                          1        0.702811                     -15.577904332270
                          2        0.612408                     -15.588447180504
                          3        0.955344E-02                 -15.655871208406
                          4        0.223754E-02                 -15.655885053552
                          5        0.157183E-02                 -15.655885461027
                          6        0.124953E-02                 -15.655885607150
                          7        0.312011E-06                 -15.655885858066

 Energy components [Hartree]           Total Energy ::          -15.655885858066
                                        Band Energy ::           -2.983128125584
                                     Kinetic Energy ::           11.754765134683
                                   Potential Energy ::          -27.410650992750
                                      Virial (-V/T) ::            2.331875684345
                                        Core Energy ::          -26.153522949072
                                          XC Energy ::           -3.157392363346
                                     Coulomb Energy ::           13.655029454351
                       Total Pseudopotential Energy ::          -37.943026860963
                       Local Pseudopotential Energy ::          -39.220419683052
                    Nonlocal Pseudopotential Energy ::            1.277392822089
                                        Confinement ::            0.347387772086

 Orbital energies  State     L     Occupation   Energy[a.u.]          Energy[eV]

                       1     0          2.000      -0.861522          -23.443215
 
                       1     1          4.000      -0.315021           -8.572154
 

 Total Electron Density at R=0:                                         0.000093
 Re-scaling the density matrix to get the right number of electrons
                  # Electrons              Trace(P)               Scaling factor
                           14                14.000                        1.000


 SCF WAVEFUNCTION OPTIMIZATION

  ----------------------------------- OT ---------------------------------------
  Minimizer      : CG                  : conjugate gradient
  Preconditioner : FULL_ALL            : diagonalization, state selective
  Precond_solver : DEFAULT
  Line search    : 2PNT                : 2 energies, one gradient
  stepsize       :    0.15000000                  energy_gap     :    0.08000000
  eps_taylor     :   0.10000E-15                  max_taylor     :             4
  ----------------------------------- OT ---------------------------------------

  Step     Update method      Time    Convergence         Total energy    Change
  ------------------------------------------------------------------------------
     1 OT CG       0.15E+00    1.5     0.34241691       -21.9726581061 -2.20E+01
     2 OT LS       0.79E-01    0.9                      -22.2480080660
     3 OT CG       0.79E-01    1.8     0.34905678       -22.9993970920 -1.03E+00
     4 OT LS       0.29E-01    0.9                      -22.0377552867
     5 OT CG       0.29E-01    1.8     0.21435284       -23.4138498349 -4.14E-01
     6 OT LS       0.76E-01    0.9                      -23.7528375896
     7 OT CG       0.76E-01    1.8     0.11580090       -23.8773554370 -4.64E-01
     8 OT LS       0.41E-01    0.9                      -23.8935167829
     9 OT CG       0.41E-01    1.8     0.09972854       -23.9304973102 -5.31E-02
    10 OT LS       0.51E-01    1.1                      -24.0096458746
    11 OT CG       0.51E-01    2.4     0.03493846       -24.0119794549 -8.15E-02
    12 OT LS       0.76E-01    1.6                      -24.0247900557
    13 OT CG       0.76E-01    2.5     0.02380887       -24.0263644957 -1.44E-02
    14 OT LS       0.83E-01    1.4                      -24.0339572415
    15 OT CG       0.83E-01    2.5     0.01510289       -24.0339981885 -7.63E-03
    16 OT LS       0.79E-01    1.3                      -24.0368738500
    17 OT CG       0.79E-01    2.5     0.00761211       -24.0368806426 -2.88E-03
    18 OT LS       0.72E-01    1.2                      -24.0375401539
    19 OT CG       0.72E-01    2.5     0.00423926       -24.0375483216 -6.68E-04
    20 OT LS       0.72E-01    1.3                      -24.0377575650
    21 OT CG       0.72E-01    2.5     0.00268626       -24.0377575860 -2.09E-04
    22 OT LS       0.80E-01    1.2                      -24.0378491576
    23 OT CG       0.80E-01    2.5     0.00135246       -24.0378499203 -9.23E-05
    24 OT LS       0.92E-01    1.2                      -24.0378765627
    25 OT CG       0.92E-01    2.5     0.00074691       -24.0378770728 -2.72E-05
    26 OT LS       0.65E-01    1.2                      -24.0378817997
    27 OT CG       0.65E-01    2.4     0.00050429       -24.0378828666 -5.79E-06
    28 OT LS       0.93E-01    1.2                      -24.0378863087
    29 OT CG       0.93E-01    2.4     0.00027550       -24.0378866575 -3.79E-06
    30 OT LS       0.96E-01    1.3                      -24.0378878283
    31 OT CG       0.96E-01    2.4     0.00016015       -24.0378878297 -1.17E-06
    32 OT LS       0.70E-01    1.1                      -24.0378880772
    33 OT CG       0.70E-01    1.8     0.00011025       -24.0378881178 -2.88E-07
    34 OT LS       0.82E-01    0.9                      -24.0378882748
    35 OT CG       0.82E-01    2.1     0.00006536       -24.0378882785 -1.61E-07
    36 OT LS       0.11E+00    0.9                      -24.0378883477
    37 OT CG       0.11E+00    1.8     0.00004051       -24.0378883515 -7.30E-08
    38 OT LS       0.82E-01    0.9                      -24.0378883713
    39 OT CG       0.82E-01    1.8     0.00002866       -24.0378883731 -2.17E-08
    40 OT LS       0.67E-01    0.9                      -24.0378883815
    41 OT CG       0.67E-01    1.8     0.00001519       -24.0378883820 -8.83E-09
    42 OT LS       0.93E-01    0.9                      -24.0378883852
    43 OT CG       0.93E-01    1.8     0.00000877       -24.0378883854 -3.46E-09
    44 OT LS       0.95E-01    0.9                      -24.0378883866
    45 OT CG       0.95E-01    1.9     0.00000572       -24.0378883866 -1.17E-09
    46 OT LS       0.60E-01    1.1                      -24.0378883868
    47 OT CG       0.60E-01    1.8     0.00000321       -24.0378883869 -3.14E-10

  *** SCF run converged in    47 steps ***


  Electronic density on regular grids:        -14.0000000000        0.0000000000
  Core density on regular grids:               14.0000000000       -0.0000000000
  Total charge density on r-space grids:       -0.0000000000
  Total charge density g-space grids:          -0.0000000000

  Overlap energy of the core charge distribution:               0.00000004893954
  Self energy of the core charge distribution:                -60.50311084124164
  Core Hamiltonian energy:                                     17.75819565896884
  Hartree energy:                                              25.27983600604001
  Exchange-correlation energy:                                 -6.57211942790841
  Dispersion energy:                                           -0.00068983172435

  Total energy:                                               -24.03788838692602

  outer SCF iter =    1 RMS gradient =   0.32E-05 energy =        -24.0378883869
  outer SCF loop converged in   1 iterations or   47 steps


 !-----------------------------------------------------------------------------!
                     Mulliken Population Analysis

 #  Atom  Element  Kind  Atomic population                           Net charge
       1     H        1          0.879900                              0.120100
       2     H        1          0.887708                              0.112292
       3     H        1          0.870760                              0.129240
       4     C        2          4.271840                             -0.271840
       5     O        3          6.229657                             -0.229657
       6     H        1          0.860135                              0.139865
 # Total charge                             14.000000                 -0.000000

 !-----------------------------------------------------------------------------!

 !-----------------------------------------------------------------------------!
                           Hirshfeld Charges

  #Atom  Element  Kind  Ref Charge     Population                    Net charge
      1       H      1       1.000          0.567                         0.433
      2       H      1       1.000          0.555                         0.445
      3       H      1       1.000          0.574                         0.426
      4       C      2       4.000          5.048                        -1.048
      5       O      3       6.000          6.803                        -0.803
      6       H      1       1.000          0.442                         0.558

  Total Charge                                                            0.011
 !-----------------------------------------------------------------------------!

 ENERGY| Total FORCE_EVAL ( QS ) energy (a.u.):              -24.037888387061653


 --------  Informations at step =     0 ------------
  Optimization Method        =                 BFGS
  Total Energy               =       -24.0378883871
  Used time                  =               79.856
 ---------------------------------------------------

 --------------------------
 OPTIMIZATION STEP:      1
 --------------------------

 Number of electrons:                                                         14
 Number of occupied orbitals:                                                  7
 Number of molecular orbitals:                                                 7

 Number of orbital functions:                                                 46
 Number of independent orbital functions:                                     46

 Parameters for the always stable predictor-corrector (ASPC) method:

  ASPC order: 0

  B(1) =   1.000000

 Extrapolation method: ASPC


 SCF WAVEFUNCTION OPTIMIZATION

  ----------------------------------- OT ---------------------------------------
  Minimizer      : CG                  : conjugate gradient
  Preconditioner : FULL_ALL            : diagonalization, state selective
  Precond_solver : DEFAULT
  Line search    : 2PNT                : 2 energies, one gradient
  stepsize       :    0.15000000                  energy_gap     :    0.08000000
  eps_taylor     :   0.10000E-15                  max_taylor     :             4
  ----------------------------------- OT ---------------------------------------

  Step     Update method      Time    Convergence         Total energy    Change
  ------------------------------------------------------------------------------
     1 OT CG       0.15E+00    1.4     0.01457076       -24.0691935514 -2.41E+01
     2 OT LS       0.17E+00    0.9                      -24.0747981012
     3 OT CG       0.17E+00    1.9     0.00653243       -24.0748454058 -5.65E-03
     4 OT LS       0.14E+00    0.9                      -24.0757881491
     5 OT CG       0.14E+00    1.9     0.00131840       -24.0758156387 -9.70E-04
     6 OT LS       0.12E+00    0.9                      -24.0758468648
     7 OT CG       0.12E+00    2.2     0.00043736       -24.0758483318 -3.27E-05
     8 OT LS       0.13E+00    0.9                      -24.0758522142
     9 OT CG       0.13E+00    1.8     0.00006534       -24.0758522389 -3.91E-06
    10 OT LS       0.20E+00    0.9                      -24.0758523571
    11 OT CG       0.20E+00    1.8     0.00001183       -24.0758523741 -1.35E-07
    12 OT LS       0.17E+00    0.9                      -24.0758523777
    13 OT CG       0.17E+00    1.9     0.00000190       -24.0758523778 -3.72E-09

  *** SCF run converged in    13 steps ***


  Electronic density on regular grids:        -14.0000000000        0.0000000000
  Core density on regular grids:               14.0000000000       -0.0000000000
  Total charge density on r-space grids:        0.0000000000
  Total charge density g-space grids:           0.0000000000

  Overlap energy of the core charge distribution:               0.00000023659691
  Self energy of the core charge distribution:                -60.50311084124164
  Core Hamiltonian energy:                                     17.96578912566382
  Hartree energy:                                              25.11218644792510
  Exchange-correlation energy:                                 -6.65011373953291
  Dispersion energy:                                           -0.00060360720206

  Total energy:                                               -24.07585237779077

  outer SCF iter =    1 RMS gradient =   0.19E-05 energy =        -24.0758523778
  outer SCF loop converged in   1 iterations or   13 steps


 !-----------------------------------------------------------------------------!
                     Mulliken Population Analysis

 #  Atom  Element  Kind  Atomic population                           Net charge
       1     H        1          0.901750                              0.098250
       2     H        1          0.906767                              0.093233
       3     H        1          0.902369                              0.097631
       4     C        2          4.218380                             -0.218380
       5     O        3          6.217061                             -0.217061
       6     H        1          0.853672                              0.146328
 # Total charge                             14.000000                  0.000000

 !-----------------------------------------------------------------------------!

 !-----------------------------------------------------------------------------!
                           Hirshfeld Charges

  #Atom  Element  Kind  Ref Charge     Population                    Net charge
      1       H      1       1.000          0.565                         0.435
      2       H      1       1.000          0.564                         0.436
      3       H      1       1.000          0.560                         0.440
      4       C      2       4.000          5.082                        -1.082
      5       O      3       6.000          6.779                        -0.779
      6       H      1       1.000          0.441                         0.559

  Total Charge                                                            0.008
 !-----------------------------------------------------------------------------!

 ENERGY| Total FORCE_EVAL ( QS ) energy (a.u.):              -24.075852377877940


 --------  Informations at step =     1 ------------
  Optimization Method        =                 BFGS
  Total Energy               =       -24.0758523779
  Real energy change         =        -0.0379639908
  Predicted change in energy =        -0.0304021441
  Scaling factor             =         0.0000000000
  Step size                  =         0.2656185233
  Trust radius               =         0.4724315332
  Decrease in energy         =                  YES
  Used time                  =               21.529

  Convergence check :
  Max. step size             =         0.2656185233
  Conv. limit for step size  =         0.0030000000
  Convergence in step size   =                   NO
  RMS step size              =         0.1351432503
  Conv. limit for RMS step   =         0.0015000000
  Convergence in RMS step    =                   NO
  Max. gradient              =         0.0379310628
  Conv. limit for gradients  =         0.0004500000
  Conv. for gradients        =                   NO
  RMS gradient               =         0.0135923081
  Conv. limit for RMS grad.  =         0.0003000000
  Conv. for gradients        =                   NO
 ---------------------------------------------------

 --------------------------
 OPTIMIZATION STEP:      2
 --------------------------

 Number of electrons:                                                         14
 Number of occupied orbitals:                                                  7
 Number of molecular orbitals:                                                 7

 Number of orbital functions:                                                 46
 Number of independent orbital functions:                                     46

 Parameters for the always stable predictor-corrector (ASPC) method:

  ASPC order: 0

  B(1) =   2.000000
  B(2) =  -1.000000

 Extrapolation method: ASPC


 SCF WAVEFUNCTION OPTIMIZATION

  ----------------------------------- OT ---------------------------------------
  Minimizer      : CG                  : conjugate gradient
  Preconditioner : FULL_ALL            : diagonalization, state selective
  Precond_solver : DEFAULT
  Line search    : 2PNT                : 2 energies, one gradient
  stepsize       :    0.15000000                  energy_gap     :    0.08000000
  eps_taylor     :   0.10000E-15                  max_taylor     :             4
  ----------------------------------- OT ---------------------------------------

  Step     Update method      Time    Convergence         Total energy    Change
  ------------------------------------------------------------------------------
     1 OT CG       0.15E+00    1.4     0.01255828       -24.0711395469 -2.41E+01
     2 OT LS       0.23E+00    1.1                      -24.0762218857
     3 OT CG       0.23E+00    1.9     0.00324268       -24.0768619730 -5.72E-03
     4 OT LS       0.13E+00    0.9                      -24.0769398928
     5 OT CG       0.13E+00    1.9     0.00091196       -24.0770744907 -2.13E-04
     6 OT LS       0.12E+00    0.9                      -24.0770908589
     7 OT CG       0.12E+00    1.9     0.00022586       -24.0770908700 -1.64E-05
     8 OT LS       0.11E+00    0.9                      -24.0770917605
     9 OT CG       0.11E+00    1.9     0.00003991       -24.0770917722 -9.02E-07
    10 OT LS       0.19E+00    0.9                      -24.0770918125
    11 OT CG       0.19E+00    1.9     0.00000710       -24.0770918219 -4.97E-08
    12 OT LS       0.17E+00    0.9                      -24.0770918232
    13 OT CG       0.17E+00    2.2     0.00000100       -24.0770918232 -1.36E-09

  *** SCF run converged in    13 steps ***


  Electronic density on regular grids:        -14.0000000000        0.0000000000
  Core density on regular grids:               14.0000000000       -0.0000000000
  Total charge density on r-space grids:       -0.0000000000
  Total charge density g-space grids:          -0.0000000000

  Overlap energy of the core charge distribution:               0.00000183757216
  Self energy of the core charge distribution:                -60.50311084124164
  Core Hamiltonian energy:                                     18.19486912259543
  Hartree energy:                                              24.95510307865162
  Exchange-correlation energy:                                 -6.72344540618351
  Dispersion energy:                                           -0.00050961461652

  Total energy:                                               -24.07709182322246

  outer SCF iter =    1 RMS gradient =   0.10E-05 energy =        -24.0770918232
  outer SCF loop converged in   1 iterations or   13 steps


 !-----------------------------------------------------------------------------!
                     Mulliken Population Analysis

 #  Atom  Element  Kind  Atomic population                           Net charge
       1     H        1          0.927499                              0.072501
       2     H        1          0.926739                              0.073261
       3     H        1          0.923157                              0.076843
       4     C        2          4.153239                             -0.153239
       5     O        3          6.210380                             -0.210380
       6     H        1          0.858985                              0.141015
 # Total charge                             14.000000                 -0.000000

 !-----------------------------------------------------------------------------!

 !-----------------------------------------------------------------------------!
                           Hirshfeld Charges

  #Atom  Element  Kind  Ref Charge     Population                    Net charge
      1       H      1       1.000          0.563                         0.437
      2       H      1       1.000          0.563                         0.437
      3       H      1       1.000          0.561                         0.439
      4       C      2       4.000          5.054                        -1.054
      5       O      3       6.000          6.810                        -0.810
      6       H      1       1.000          0.443                         0.557

  Total Charge                                                            0.007
 !-----------------------------------------------------------------------------!

 ENERGY| Total FORCE_EVAL ( QS ) energy (a.u.):              -24.077091823254651


 --------  Informations at step =     2 ------------
  Optimization Method        =                 BFGS
  Total Energy               =       -24.0770918233
  Real energy change         =        -0.0012394454
  Predicted change in energy =        -0.0066883476
  Scaling factor             =         0.0000000000
  Step size                  =         0.1181955274
  Trust radius               =         0.4724315332
  Decrease in energy         =                  YES
  Used time                  =               21.967

  Convergence check :
  Max. step size             =         0.1181955274
  Conv. limit for step size  =         0.0030000000
  Convergence in step size   =                   NO
  RMS step size              =         0.0647924069
  Conv. limit for RMS step   =         0.0015000000
  Convergence in RMS step    =                   NO
  Max. gradient              =         0.0236194493
  Conv. limit for gradients  =         0.0004500000
  Conv. for gradients        =                   NO
  RMS gradient               =         0.0118827399
  Conv. limit for RMS grad.  =         0.0003000000
  Conv. for gradients        =                   NO
 ---------------------------------------------------

 --------------------------
 OPTIMIZATION STEP:      3
 --------------------------

 Number of electrons:                                                         14
 Number of occupied orbitals:                                                  7
 Number of molecular orbitals:                                                 7

 Number of orbital functions:                                                 46
 Number of independent orbital functions:                                     46

 Parameters for the always stable predictor-corrector (ASPC) method:

  ASPC order: 1

  B(1) =   2.500000
  B(2) =  -2.000000
  B(3) =   0.500000

 Extrapolation method: ASPC


 SCF WAVEFUNCTION OPTIMIZATION

  ----------------------------------- OT ---------------------------------------
  Minimizer      : CG                  : conjugate gradient
  Preconditioner : FULL_ALL            : diagonalization, state selective
  Precond_solver : DEFAULT
  Line search    : 2PNT                : 2 energies, one gradient
  stepsize       :    0.15000000                  energy_gap     :    0.08000000
  eps_taylor     :   0.10000E-15                  max_taylor     :             4
  ----------------------------------- OT ---------------------------------------

  Step     Update method      Time    Convergence         Total energy    Change
  ------------------------------------------------------------------------------
     1 OT CG       0.15E+00    1.4     0.01902123       -24.0673870386 -2.41E+01
     2 OT LS       0.19E+00    0.9                      -24.0779204844
     3 OT CG       0.19E+00    1.8     0.00824739       -24.0783887252 -1.10E-02
     4 OT LS       0.13E+00    0.9                      -24.0795333819
     5 OT CG       0.13E+00    1.9     0.00136650       -24.0798207784 -1.43E-03
     6 OT LS       0.11E+00    0.9                      -24.0798536300
     7 OT CG       0.11E+00    1.9     0.00046783       -24.0798545161 -3.37E-05
     8 OT LS       0.14E+00    1.2                      -24.0798592256
     9 OT CG       0.14E+00    1.9     0.00007618       -24.0798594026 -4.89E-06
    10 OT LS       0.20E+00    0.9                      -24.0798595707
    11 OT CG       0.20E+00    1.9     0.00000817       -24.0798595870 -1.84E-07
    12 OT LS       0.18E+00    0.9                      -24.0798595889
    13 OT CG       0.18E+00    1.9     0.00000278       -24.0798595889 -1.92E-09

  *** SCF run converged in    13 steps ***


  Electronic density on regular grids:        -14.0000000000        0.0000000000
  Core density on regular grids:               14.0000000000       -0.0000000000
  Total charge density on r-space grids:        0.0000000000
  Total charge density g-space grids:           0.0000000000

  Overlap energy of the core charge distribution:               0.00000068956008
  Self energy of the core charge distribution:                -60.50311084124164
  Core Hamiltonian energy:                                     18.07009538840745
  Hartree energy:                                              25.03874123881006
  Exchange-correlation energy:                                 -6.68502629886117
  Dispersion energy:                                           -0.00055976558763

  Total energy:                                               -24.07985958891285

  outer SCF iter =    1 RMS gradient =   0.28E-05 energy =        -24.0798595889
  outer SCF loop converged in   1 iterations or   13 steps


 !-----------------------------------------------------------------------------!
                     Mulliken Population Analysis

 #  Atom  Element  Kind  Atomic population                           Net charge
       1     H        1          0.914400                              0.085600
       2     H        1          0.917604                              0.082396
       3     H        1          0.909965                              0.090035
       4     C        2          4.184757                             -0.184757
       5     O        3          6.216015                             -0.216015
       6     H        1          0.857259                              0.142741
 # Total charge                             14.000000                 -0.000000

 !-----------------------------------------------------------------------------!

 !-----------------------------------------------------------------------------!
                           Hirshfeld Charges

  #Atom  Element  Kind  Ref Charge     Population                    Net charge
      1       H      1       1.000          0.563                         0.437
      2       H      1       1.000          0.563                         0.437
      3       H      1       1.000          0.560                         0.440
      4       C      2       4.000          5.069                        -1.069
      5       O      3       6.000          6.796                        -0.796
      6       H      1       1.000          0.442                         0.558

  Total Charge                                                            0.007
 !-----------------------------------------------------------------------------!

 ENERGY| Total FORCE_EVAL ( QS ) energy (a.u.):              -24.079859589032253


 --------  Informations at step =     3 ------------
  Optimization Method        =                 BFGS
  Total Energy               =       -24.0798595890
  Real energy change         =        -0.0027677658
  Predicted change in energy =        -0.0029826399
  Scaling factor             =         0.0000000000
  Step size                  =         0.0613008394
  Trust radius               =         0.4724315332
  Decrease in energy         =                  YES
  Used time                  =               21.584

  Convergence check :
  Max. step size             =         0.0613008394
  Conv. limit for step size  =         0.0030000000
  Convergence in step size   =                   NO
  RMS step size              =         0.0296316743
  Conv. limit for RMS step   =         0.0015000000
  Convergence in RMS step    =                   NO
  Max. gradient              =         0.0032533233
  Conv. limit for gradients  =         0.0004500000
  Conv. for gradients        =                   NO
  RMS gradient               =         0.0014874051
  Conv. limit for RMS grad.  =         0.0003000000
  Conv. for gradients        =                   NO
 ---------------------------------------------------

 --------------------------
 OPTIMIZATION STEP:      4
 --------------------------

 Number of electrons:                                                         14
 Number of occupied orbitals:                                                  7
 Number of molecular orbitals:                                                 7

[...]
 Number of occupied orbitals:                                                  7
 Number of molecular orbitals:                                                 7

 Number of orbital functions:                                                 46
 Number of independent orbital functions:                                     46

 Parameters for the always stable predictor-corrector (ASPC) method:

  ASPC order: 3

  B(1) =   3.000000
  B(2) =  -3.428571
  B(3) =   1.928571
  B(4) =  -0.571429
  B(5) =   0.071429

 Extrapolation method: ASPC


 SCF WAVEFUNCTION OPTIMIZATION

  ----------------------------------- OT ---------------------------------------
  Minimizer      : CG                  : conjugate gradient
  Preconditioner : FULL_ALL            : diagonalization, state selective
  Precond_solver : DEFAULT
  Line search    : 2PNT                : 2 energies, one gradient
  stepsize       :    0.15000000                  energy_gap     :    0.08000000
  eps_taylor     :   0.10000E-15                  max_taylor     :             4
  ----------------------------------- OT ---------------------------------------

  Step     Update method      Time    Convergence         Total energy    Change
  ------------------------------------------------------------------------------
     1 OT CG       0.15E+00    1.9     0.00268546       -24.0808876081 -2.41E+01
     2 OT LS       0.23E+00    1.2                      -24.0811245951
     3 OT CG       0.23E+00    2.5     0.00079019       -24.0811601130 -2.73E-04
     4 OT LS       0.89E-01    1.2                      -24.0811453459
     5 OT CG       0.89E-01    2.5     0.00010750       -24.0811691052 -8.99E-06
     6 OT LS       0.17E+00    1.1                      -24.0811693481
     7 OT CG       0.17E+00    2.3     0.00002432       -24.0811694135 -3.08E-07
     8 OT LS       0.14E+00    1.2                      -24.0811694257
     9 OT CG       0.14E+00    2.5     0.00000682       -24.0811694264 -1.29E-08
    10 OT LS       0.16E+00    1.2                      -24.0811694276
    11 OT CG       0.16E+00    2.5     0.00000092       -24.0811694276 -1.23E-09

  *** SCF run converged in    11 steps ***


  Electronic density on regular grids:        -14.0000000000        0.0000000000
  Core density on regular grids:               14.0000000000       -0.0000000000
  Total charge density on r-space grids:        0.0000000000
  Total charge density g-space grids:           0.0000000000

  Overlap energy of the core charge distribution:               0.00000073883530
  Self energy of the core charge distribution:                -60.50311084124164
  Core Hamiltonian energy:                                     18.06848278189519
  Hartree energy:                                              25.03952578844026
  Exchange-correlation energy:                                 -6.68549073600301
  Dispersion energy:                                           -0.00057715952691

  Total energy:                                               -24.08116942760081

  outer SCF iter =    1 RMS gradient =   0.92E-06 energy =        -24.0811694276
  outer SCF loop converged in   1 iterations or   11 steps


 !-----------------------------------------------------------------------------!
                     Mulliken Population Analysis

 #  Atom  Element  Kind  Atomic population                           Net charge
       1     H        1          0.916541                              0.083459
       2     H        1          0.916752                              0.083248
       3     H        1          0.908895                              0.091105
       4     C        2          4.185128                             -0.185128
       5     O        3          6.216145                             -0.216145
       6     H        1          0.856539                              0.143461
 # Total charge                             14.000000                  0.000000

 !-----------------------------------------------------------------------------!

 !-----------------------------------------------------------------------------!
                           Hirshfeld Charges

  #Atom  Element  Kind  Ref Charge     Population                    Net charge
      1       H      1       1.000          0.564                         0.436
      2       H      1       1.000          0.564                         0.436
      3       H      1       1.000          0.557                         0.443
      4       C      2       4.000          5.068                        -1.068
      5       O      3       6.000          6.796                        -0.796
      6       H      1       1.000          0.443                         0.557

  Total Charge                                                            0.007
 !-----------------------------------------------------------------------------!

 ENERGY| Total FORCE_EVAL ( QS ) energy (a.u.):              -24.081169427600813


 -------------------------------------------------------------------------------
 -                                                                             -
 -                                DBCSR STATISTICS                             -
 -                                                                             -
 -------------------------------------------------------------------------------
 COUNTER                                    TOTAL       BLAS       SMM       ACC
 flops     5 x     7 x     7               470890     100.0%      0.0%      0.0%
 flops    10 x     7 x     5               890400     100.0%      0.0%      0.0%
 flops    10 x     7 x     7               941780     100.0%      0.0%      0.0%
 flops     5 x     5 x     7              1043000     100.0%      0.0%      0.0%
 flops     7 x     7 x     7              1069474     100.0%      0.0%      0.0%
 flops     5 x    13 x     7              1084720     100.0%      0.0%      0.0%
 flops    13 x     5 x     7              1084720     100.0%      0.0%      0.0%
 flops    10 x     7 x    13              1157520     100.0%      0.0%      0.0%
 flops     7 x     7 x     5              1372000     100.0%      0.0%      0.0%
 flops     7 x     7 x    13              1783600     100.0%      0.0%      0.0%
 flops    13 x    13 x     7              2115204     100.0%      0.0%      0.0%
 flops    31 x     7 x     5              2760240     100.0%      0.0%      0.0%
 flops    31 x     7 x     7              2919518     100.0%      0.0%      0.0%
 flops    31 x     7 x    13              3588312     100.0%      0.0%      0.0%
 flops     5 x     7 x     5              3788400     100.0%      0.0%      0.0%
 flops    13 x     7 x     5              4346160     100.0%      0.0%      0.0%
 flops     5 x     7 x    13              4924920     100.0%      0.0%      0.0%
 flops    13 x     7 x    13              5650008     100.0%      0.0%      0.0%
 flops inhomo. stacks                           0       0.0%      0.0%      0.0%
 flops total                        40.990866E+06     100.0%      0.0%      0.0%
 flops max/rank                     27.798036E+06     100.0%      0.0%      0.0%
 matmuls inhomo. stacks                         0       0.0%      0.0%      0.0%
 matmuls total                              42116     100.0%      0.0%      0.0%
 number of processed stacks                 33760     100.0%      0.0%      0.0%
 average stack size                                     1.2       0.0       0.0
 marketing flops                    44.576312E+06
 -------------------------------------------------------------------------------
 # multiplications                           4452
 max memory usage/rank             681.914368E+06
 # max total images/rank                        5
 # max 3D layers                                1
 # MPI messages exchanged                11219040
 MPI messages size (bytes):
  total size                       243.561232E+06
  min size                           0.000000E+00
  max size                           3.224000E+03
  average size                      21.709633E+00
 MPI breakdown and total messages size (bytes):
             size <=      128            10861686                        0
       128 < size <=     8192              357354                243561240
      8192 < size <=    32768                   0                        0
     32768 < size <=   131072                   0                        0
    131072 < size <=  4194304                   0                        0
   4194304 < size <= 16777216                   0                        0
  16777216 < size                               0                        0
 -------------------------------------------------------------------------------

 *** WARNING in dbcsr/mm/dbcsr_mm.F:268 :: Using a non-square number of ***
 *** MPI ranks might lead to poor performance.                          ***
 *** Used ranks: 40                                                     ***
 *** Suggested: 36 81                                                   ***

 -------------------------------------------------------------------------------
 
 MEMORY| Estimated peak process memory [MiB]                                 651

 -------------------------------------------------------------------------------
 ----                             MULTIGRID INFO                            ----
 -------------------------------------------------------------------------------
 count for grid        1:         204560          cutoff [a.u.]          600.00
 count for grid        2:         245260          cutoff [a.u.]          200.00
 count for grid        3:         222367          cutoff [a.u.]           66.67
 count for grid        4:         150755          cutoff [a.u.]           22.22
 count for grid        5:          53508          cutoff [a.u.]            7.41
 total gridlevel count  :         876450

 -------------------------------------------------------------------------------
 -                                                                             -
 -                         MESSAGE PASSING PERFORMANCE                         -
 -                                                                             -
 -------------------------------------------------------------------------------

 ROUTINE             CALLS      AVE VOLUME [Bytes]
 MP_Group              363
 MP_Bcast             1935                 287096.
 MP_Allreduce        28873                     96.
 MP_Sync               127
 MP_Alltoall         22554                4510325.
 MP_SendRecv          2808                     60.
 MP_ISendRecv        51246                  99157.
 MP_Wait            529041
 MP_comm_split         122
 MP_ISend           627840                  37280.
 MP_IRecv           625844                  37255.
 MP_Recv               136                    288.
 MP_Memory          569418
 -------------------------------------------------------------------------------


 -------------------------------------------------------------------------------
 -                                                                             -
 -                           R E F E R E N C E S                               -
 -                                                                             -
 -------------------------------------------------------------------------------
 
 CP2K version 7.0 (Development Version), the CP2K developers group (2018).
 CP2K is freely available from https://www.cp2k.org/ .

 Schuett, Ole; Messmer, Peter; Hutter, Juerg; VandeVondele, Joost. 
 Electronic Structure Calculations on Graphics Processing Units, John Wiley & Sons, Ltd, 173-190 (2016). 
 GPU-Accelerated Sparse Matrix-Matrix Multiplication for Linear Scaling Density Functional Theory.
 http://dx.doi.org/10.1002/9781118670712.ch8


 Borstnik, U; VandeVondele, J; Weber, V; Hutter, J. 
 PARALLEL COMPUTING, 40 (5-6), 47-58 (2014). 
 Sparse matrix multiplication: The distributed block-compressed sparse
 row library.
 http://dx.doi.org/10.1016/j.parco.2014.03.012


 Hutter, J; Iannuzzi, M; Schiffmann, F; VandeVondele, J. 
 WILEY INTERDISCIPLINARY REVIEWS-COMPUTATIONAL MOLECULAR SCIENCE, 4 (1), 15-25 (2014). 
 CP2K: atomistic simulations of condensed matter systems.
 http://dx.doi.org/10.1002/wcms.1159


 Grimme, S; Ehrlich, S; Goerigk, L. 
 JOURNAL OF COMPUTATIONAL CHEMISTRY, 32, 1456 (2011). 
 Effect of the damping function in dispersion corrected density functional theory.
 http://dx.doi.org/10.1002/jcc.21759


 Grimme, S; Antony, J; Ehrlich, S; Krieg, H. 
 JOURNAL OF CHEMICAL PHYSICS, 132 (15), 154104 (2010). 
 A consistent and accurate ab initio parametrization of density
 functional dispersion correction (DFT-D) for the 94 elements H-Pu.
 http://dx.doi.org/10.1063/1.3382344


 VandeVondele, J; Hutter, J. 
 JOURNAL OF CHEMICAL PHYSICS, 127 (11), 114105 (2007). 
 Gaussian basis sets for accurate calculations on molecular systems in
 gas and condensed phases.
 http://dx.doi.org/10.1063/1.2770708


 Krack, M. 
 THEORETICAL CHEMISTRY ACCOUNTS, 114 (1-3), 145-152 (2005). 
 Pseudopotentials for H to Kr optimized for gradient-corrected
 exchange-correlation functionals.
 http://dx.doi.org/10.1007/s00214-005-0655-y


 VandeVondele, J; Krack, M; Mohamed, F; Parrinello, M; Chassaing, T;
 Hutter, J. COMPUTER PHYSICS COMMUNICATIONS, 167 (2), 103-128 (2005). 
 QUICKSTEP: Fast and accurate density functional calculations using a
 mixed Gaussian and plane waves approach.
 http://dx.doi.org/10.1016/j.cpc.2004.12.014


 Frigo, M; Johnson, SG. 
 PROCEEDINGS OF THE IEEE, 93 (2), 216-231 (2005). 
 The design and implementation of FFTW3.
 http://dx.doi.org/10.1109/JPROC.2004.840301


 Kolafa, J. 
 JOURNAL OF COMPUTATIONAL CHEMISTRY, 25 (3), 335-342 (2004). 
 Time-reversible always stable predictor-corrector method for molecular dynamics of polarizable molecules.
 http://dx.doi.org/10.1002/jcc.10385


 VandeVondele, J; Hutter, J. 
 JOURNAL OF CHEMICAL PHYSICS, 118 (10), 4365-4369 (2003). 
 An efficient orbital transformation method for electronic structure
 calculations.
 http://dx.doi.org/10.1063/1.1543154


 Hartwigsen, C; Goedecker, S; Hutter, J. 
 PHYSICAL REVIEW B, 58 (7), 3641-3662 (1998). 
 Relativistic separable dual-space Gaussian pseudopotentials from H to Rn.
 http://dx.doi.org/10.1103/PhysRevB.58.3641


 Lippert, G; Hutter, J; Parrinello, M. 
 MOLECULAR PHYSICS, 92 (3), 477-487 (1997). 
 A hybrid Gaussian and plane wave density functional scheme.
 http://dx.doi.org/10.1080/002689797170220


 Perdew, JP; Burke, K; Ernzerhof, M. 
 PHYSICAL REVIEW LETTERS, 77 (18), 3865-3868 (1996). 
 Generalized gradient approximation made simple.
 http://dx.doi.org/10.1103/PhysRevLett.77.3865


 Goedecker, S; Teter, M; Hutter, J. 
 PHYSICAL REVIEW B, 54 (3), 1703-1710 (1996). 
 Separable dual-space Gaussian pseudopotentials.
 http://dx.doi.org/10.1103/PhysRevB.54.1703


 -------------------------------------------------------------------------------
 -                                                                             -
 -                                T I M I N G                                  -
 -                                                                             -
 -------------------------------------------------------------------------------
 SUBROUTINE                       CALLS  ASD         SELF TIME        TOTAL TIME
                                MAXIMUM       AVERAGE  MAXIMUM  AVERAGE  MAXIMUM
 CP2K                                 1  1.0    0.091    0.105  492.801  492.802
 cp_geo_opt                           1  2.0    0.001    0.004  491.724  491.729
 geoopt_bfgs                          1  3.0    0.005    0.018  491.723  491.728
 cp_eval_at                          19  4.0    0.006    0.007  488.959  488.967
 qs_forces                           18  5.0    0.010    0.010  466.480  466.481
 qs_energies                         19  5.9    0.010    0.028  454.488  454.509
 scf_env_do_scf                      19  6.9    0.002    0.009  429.584  429.619
 scf_env_do_scf_inner_loop          261  8.0    0.021    0.038  400.068  400.085
 rebuild_ks_matrix                  279  9.8    0.001    0.001  307.909  307.926
 qs_ks_build_kohn_sham_matrix       279 10.8    0.045    0.058  307.908  307.925
 qs_ks_update_qs_env                280  9.0    0.002    0.003  273.704  273.726
 pw_transfer                       4674 13.2    0.486    0.588  264.720  267.348
 fft_wrap_pw1pw2                   4116 14.3    0.046    0.058  260.834  263.492
 fft_wrap_pw1pw2_600               2364 15.6   27.681   28.776  244.313  247.255
 fft3d_ps                          4116 16.3   89.722   91.505  197.463  202.050
 qs_vxc_create                      279 11.8    0.009    0.010  198.790  199.014
 qs_rho_update_rho                  280  9.0    0.001    0.001  156.751  156.804
 calculate_rho_elec                 280 10.0    2.324    7.524  156.750  156.802
 xc_vxc_pw_create                   158 12.6    8.764    9.377  148.791  149.008
 density_rs2pw                      280 11.0    0.022    0.024  141.974  143.143
 rs_pw_transfer                    2265 12.9    0.023    0.030  123.268  124.417
 xc_rho_set_and_dset_create         279 13.8    1.488    1.551  108.385  110.390
 mp_alltoall_z22v                  4116 18.3   79.389   82.617   79.389   82.617
 sum_up_and_integrate               158 11.6    1.087    1.126   69.485   69.528
 integrate_v_rspace                 158 12.6    0.647    3.030   68.398   68.460
 potential_pw2rs                    158 13.6    0.126    0.144   65.159   65.215
 mp_waitany                       45648 14.8   55.302   60.953   55.302   60.953
 x_to_yz                           1907 18.0   16.433   16.700   59.673   60.570
 rs_pw_transfer_RS2PW_600           318 12.8   21.792   24.227   52.270   53.637
 yz_to_x                           1771 16.7   11.553   12.299   47.669   50.536
 xc_exc_calc                        121 13.0    0.545    0.563   49.990   49.998
 rs_pw_transfer_PW2RS_600           195 14.8   13.170   14.126   35.102   35.399
 qs_ks_update_qs_env_forces          18  6.0    0.000    0.000   34.318   34.320
 init_scf_loop                       19  7.9    0.005    0.006   29.445   29.446
 mp_waitall_1                    483393 16.9   19.878   22.276   19.878   22.276
 pw_scatter_p                      2065 17.0   20.492   20.928   20.492   20.928
 pw_poisson_solve                   279 11.8    8.813    8.949   15.902   15.924
 pw_derive                         1365 14.2   14.568   14.991   14.568   14.991
 pw_gather_p                       2051 15.6   13.900   14.822   13.900   14.822
 mp_sum_d                          4274 12.5   13.774   14.632   13.774   14.632
 fft_wrap_pw1pw2_200                438 15.0    1.048    1.137   12.569   13.171
 pw_copy                           2797 14.1   12.163   12.320   12.163   12.320
 rs_grid_zero                      1791 12.0   11.141   11.303   11.141   11.303
 rs_pw_transfer_RS2PW_200           280 13.0    3.832    4.407   10.745   11.078
 init_scf_run                        19  6.9    0.002    0.003   11.007   11.008
 scf_env_initial_rho_setup           19  7.9    0.002    0.002   11.005   11.005
 wfi_extrapolate                     19  8.9    0.003    0.014   10.276   10.295
 -------------------------------------------------------------------------------

 The number of warnings for this run is : 1
 
 -------------------------------------------------------------------------------
  **** **** ******  **  PROGRAM ENDED AT                 2019-05-23 13:05:28.388
 ***** ** ***  *** **   PROGRAM RAN ON            blg9144.int.ets1.calculquebec.
 **    ****   ******    PROGRAM RAN BY                                       rzk
 ***** **    ** ** **   PROGRAM PROCESS ID                                371802
  **** **  *******  **  PROGRAM STOPPED IN /lustre03/project/6004141/rzk/GaN-car
                                           bene/01-Methanol/00-vacuum-methanol
