     156
 i =        1, E =     -6135.9994803901
 Ga        -0.0031984845       -0.0157177532       -0.5330472319
  N        -0.0002942585        1.8585928506        0.6061553138
 Ga        -0.0003476891        1.8277949202        2.6379219699
  N        -0.0034364349       -0.0156363014        3.2694361697
 Ga        -0.0022041021       -0.0150495140        5.2602351384
  N         0.0008027632        1.8595568703        5.8482779240
 Ga         0.0021960024        1.8581593744        7.8481732088
  N         0.0007838932       -0.0150976113        8.4504116576
 Ga         0.0039412885       -0.0151563113       10.4496849071
  N         0.0041076845        1.8599238267       11.0449484566
 Ga         0.0091921372        1.8631660571       13.0371112157
  N         0.0160221432       -0.0106241696       13.6272573957
 Ga         0.0281693878       -0.0053522285       15.6172170058
  N         0.0115116416        1.8566458264       16.2263103253
 Ga         0.0441707554        1.8428051357       18.2894492033
  N         0.0529005289       -0.0341894505       18.7087906548
 Ga        -1.6232553394        2.7902115799        0.3243536552
  N        -1.6246594061        4.6598366319        0.6070251940
 Ga        -1.5957687307        4.6757301593        2.6367716931
  N        -1.6228709493        2.7898956289        3.2282036124
 Ga        -1.6217250219        2.7906119618        5.2398390931
  N        -1.6212945353        4.6609310522        5.8465854832
 Ga        -1.6191583219        4.6613533636        7.8452029414
  N        -1.6203700881        2.7917871900        8.4509160668
 Ga        -1.6188929245        2.7951729225       10.4470117440
  N        -1.6173595584        4.6667953309       11.0552812777
 Ga        -1.6177945574        4.6713081241       13.0522531997
  N        -1.6100865388        2.8010861512       13.6529785545
 Ga        -1.5936177944        2.8145657388       15.6550678119
  N        -1.5865974466        4.6815445966       16.3072911127
 Ga        -1.5132597222        4.6787789525       18.3833687237
  N        -1.4632375075        2.8271004123       19.0172612122
 Ga        -3.2435510634        5.5952099981        0.3242869641
  N        -3.2373162625        7.4660974486        0.6063594104
 Ga        -3.2644385610        7.4808504357        2.6380208514
  N        -3.2426884052        5.5953724787        3.2285289442
 Ga        -3.2418936634        5.5960236115        5.2399950919
  N        -3.2358613241        7.4662945490        5.8470257645
 Ga        -3.2359117493        7.4670501242        7.8460969969
  N        -3.2399018643        5.5961534877        8.4492252014
 Ga        -3.2386044155        5.5972114352       10.4445200835
  N        -3.2307646966        7.4657309059       11.0552852924
 Ga        -3.2221195455        7.4628844181       13.0528820247
  N        -3.2325875874        5.5993095230       13.6955602303
 Ga        -3.2216385859        5.5932429716       15.7313828031
  N        -3.2155762171        7.4821091121       16.2600057285
 Ga        -3.1804078499        7.4515984409       18.3192895766
  N        -3.1604154607        5.5893753693       18.8545408878
 Ga         3.2429207299       -0.0154069454        0.3246193163
  N         3.2410285998        1.8545811115        0.6064090603
 Ga         3.2694817157        1.8704061073        2.6370760142
  N         3.2425256014       -0.0154894402        3.2281775138
 Ga         3.2439670227       -0.0146810154        5.2398604917
  N         3.2445700546        1.8554797489        5.8475355887
 Ga         3.2469392714        1.8562129802        7.8469311928
  N         3.2449193555       -0.0147952159        8.4495447748
 Ga         3.2477620999       -0.0140516976       10.4449702171
  N         3.2511667828        1.8568024671       11.0509828379
 Ga         3.2575279630        1.8537310278       13.0480087590
  N         3.2565066136       -0.0169508721       13.6607467285
 Ga         3.2750771157       -0.0169876715       15.6663817559
  N         3.2808618161        1.8624547373       16.2191437603
 Ga         3.3154174931        1.8600057984       18.2442723660
  N         3.3142072492       -0.0294010029       18.7007335427
 Ga         1.6222926846        2.7909113279        0.3242512157
  N         1.6291144838        4.6604781467        0.6073002083
 Ga         1.6011689878        4.6758515761        2.6370831175
  N         1.6226126358        2.7900521871        3.2289397303
 Ga         1.6241749587        2.7909341385        5.2408296444
  N         1.6297008437        4.6611665288        5.8484630732
 Ga         1.6300185115        4.6614143283        7.8482122613
  N         1.6259949914        2.7902655667        8.4493555557
 Ga         1.6290376538        2.7914481643       10.4448291282
  N         1.6275814278        4.6622849182       11.0484394939
 Ga         1.6288324046        4.6628535909       13.0428800122
  N         1.6329385039        2.7879280788       13.6460903492
 Ga         1.6430414747        2.7770678340       15.6406192173
  N         1.6337622516        4.6647554031       16.1836468040
 Ga         1.6766787601        4.6405081106       18.1835375638
  N         1.6836010553        2.7770313995       18.6480654783
 Ga         0.0030973503        5.5957613355       -0.5479078958
  N         0.0059359701        7.4705918864        0.6069936858
 Ga         0.0060411209        7.4383468959        2.6368647801
  N         0.0029932147        5.5951907619        3.2695206806
 Ga         0.0046576757        5.5961869925        5.2596989395
  N         0.0074424544        7.4706946646        5.8477545351
 Ga         0.0087919110        7.4692824081        7.8471421608
  N         0.0049186866        5.5957433591        8.4470346998
 Ga         0.0063737689        5.5971404299       10.4440273507
  N         0.0116743702        7.4691757275       11.0461811259
 Ga         0.0139005959        7.4711215424       13.0388171358
  N         0.0068873739        5.6017021606       13.6478440423
 Ga         0.0034560517        5.6025601781       15.6429461306
  N         0.0338587966        7.4601406737       16.2781449395
 Ga         0.0838552200        7.4280388263       18.3618820798
  N         0.1402968254        5.5762512930       18.9086489412
 Ga         6.4869052275       -0.0149704981        0.3238464792
  N         6.4937316888        1.8550330630        0.6060510077
 Ga         6.4661729565        1.8702257377        2.6368559064
  N         6.4882781599       -0.0154374242        3.2287526148
 Ga         6.4897331130       -0.0147045216        5.2406852288
  N         6.4945124803        1.8558350233        5.8479559535
 Ga         6.4945406278        1.8569382691        7.8474825505
  N         6.4909311364       -0.0136872869        8.4509900660
 Ga         6.4942909529       -0.0113105969       10.4473715782
  N         6.4968171434        1.8609225633       11.0528366896
 Ga         6.5000237771        1.8660650260       13.0498265099
  N         6.4898902589       -0.0079824945       13.6403960748
 Ga         6.5036595121        0.0011878800       15.6435886401
  N         6.5233715940        1.8783378803       16.2344878905
 Ga         6.6565408467        1.9249098272       18.2960528070
  N         6.5634084163       -0.0011398861       18.6480525187
 Ga         4.8675503030        2.7916343900       -0.5418795027
  N         4.8709567020        4.6648632752        0.6069355200
 Ga         4.8707948166        4.6334025650        2.6373220087
  N         4.8682735548        2.7899432708        3.2691411081
 Ga         4.8695372834        2.7911065658        5.2594380824
  N         4.8721310614        4.6652252121        5.8481221211
 Ga         4.8728399093        4.6639401199        7.8477153856
  N         4.8708834994        2.7913812297        8.4503044745
 Ga         4.8736965522        2.7952136407       10.4497212217
  N         4.8797705059        4.6661544500       11.0584890392
 Ga         4.8836210733        4.6702979136       13.0610576664
  N         4.8745414387        2.7952365570       13.6513305584
 Ga         4.8857440091        2.8003423697       15.6636947699
  N         4.8667931804        4.6723477626       16.1754080798
 Ga         4.9287968442        4.6591236940       19.0947526375
  N         4.9544858532        2.7696281697       18.7384275827
 Ga         3.2486730299        5.5947128626        0.3238149269
  N         3.2479321553        7.4655043587        0.6058141632
 Ga         3.2756692184        7.4807146922        2.6375394675
  N         3.2485732327        5.5956139300        3.2289233753
 Ga         3.2499404295        5.5963779733        5.2405447761
  N         3.2504607669        7.4661621604        5.8493790681
 Ga         3.2531838824        7.4666934280        7.8496088683
  N         3.2513981657        5.5959673366        8.4547064781
 Ga         3.2549220127        5.5974418897       10.4535388169
  N         3.2566445213        7.4713025880       11.0517434326
 Ga         3.2586900306        7.4717161049       13.0488538536
  N         3.2487295560        5.5956273274       13.6327371343
 Ga         3.2607753862        5.6062688454       15.6390378459
  N         3.2811440714        7.4901396025       16.1552583294
 Ga         3.3269940534        7.4961286766       18.1708667683
  N         3.3564911639        5.5737360222       18.4712861946
  O         1.5524914734        5.0317759621       21.2542322182
  H         0.9929336168        5.3934355477       20.4865897053
  C         0.7596846933        3.9396641247       21.7965152296
  H         0.0322119711        3.5236018683       21.0075053897
  H         1.5321560380        3.2341216671       22.1792801366
  H         0.3368066212        4.3638654547       22.7400861030
  O         4.2312451283        4.7164115747       21.0756932832
  H         3.2214908665        4.8673456000       21.0753168033
  C         4.5516970328        3.5969071426       21.9428113762
  H         4.1180066604        2.6626070173       21.5597898203
  H         5.6437587507        3.5041444837       21.9649000914
  H         4.1788028416        3.8120589026       22.9522822387
     156
 i =        2, E =     -6136.3337286472
 Ga        -0.0031894772       -0.0156944084       -0.5339123401
  N        -0.0002765381        1.8586742861        0.6066791391
 Ga        -0.0003077814        1.8278139321        2.6379686582
  N        -0.0034147509       -0.0155972442        3.2695205595
 Ga        -0.0021636147       -0.0150546015        5.2600624731
  N         0.0008355977        1.8596062290        5.8483942243
 Ga         0.0021258719        1.8582179957        7.8482938918
  N         0.0008779437       -0.0151483792        8.4511282752
 Ga         0.0040032182       -0.0151162899       10.4506513415
  N         0.0041294100        1.8600692655       11.0447577026
 Ga         0.0097182849        1.8626952295       13.0365880971
  N         0.0161439708       -0.0102490466       13.6257519177
 Ga         0.0278232076       -0.0052898426       15.6157967528
  N         0.0117043639        1.8571969911       16.2377445379
 Ga         0.0650618943        1.8444609905       18.3044948185
  N         0.0508645079       -0.0380925740       18.6998023157
 Ga        -1.6231164785        2.7902079943        0.3238034618
  N        -1.6247855616        4.6597367912        0.6073436820
 Ga        -1.5958205057        4.6756969166        2.6368145545
  N        -1.6228734991        2.7897701734        3.2282318664
 Ga        -1.6217469289        2.7906079795        5.2396306354
  N        -1.6212938542        4.6608917917        5.8465372525
 Ga        -1.6191964886        4.6614101236        7.8450974165
  N        -1.6204287855        2.7919302234        8.4517777513
 Ga        -1.6188071831        2.7954326669       10.4479193033
  N        -1.6176122105        4.6670825532       11.0552913628
 Ga        -1.6166722015        4.6711424951       13.0516214184
  N        -1.6101105433        2.8006489905       13.6478381480
 Ga        -1.5876813131        2.8171652675       15.6460917840
  N        -1.5879028040        4.6780490648       16.3121464044
 Ga        -1.5034752806        4.6914910588       18.3846419319
  N        -1.3194286750        2.8966669534       19.2672612122
 Ga        -3.2434527270        5.5952901046        0.3237641534
  N        -3.2372090008        7.4660535940        0.6069052528
 Ga        -3.2644142346        7.4808140453        2.6381511074
  N        -3.2427670965        5.5953701308        3.2286389990
 Ga        -3.2419220805        5.5960277895        5.2398848082
  N        -3.2358003757        7.4663458586        5.8469923410
 Ga        -3.2358379491        7.4669626732        7.8459815888
  N        -3.2399054981        5.5961342088        8.4494351731
 Ga        -3.2383570169        5.5970996829       10.4443319105
  N        -3.2307099134        7.4651341531       11.0552075260
 Ga        -3.2222045393        7.4635128565       13.0529869654
  N        -3.2330787674        5.5975783348       13.6914980682
 Ga        -3.2175886359        5.5940269074       15.7273750672
  N        -3.2162024926        7.4817972787       16.2631052872
 Ga        -3.1773624946        7.4505865770       18.3196147496
  N        -3.1639800954        5.5859355878       18.8428957439
 Ga         3.2429122758       -0.0154915758        0.3240689903
  N         3.2410048805        1.8545758538        0.6066174018
 Ga         3.2694980194        1.8704157043        2.6371316097
  N         3.2424789297       -0.0153931993        3.2281926917
 Ga         3.2439769887       -0.0146203141        5.2396127897
  N         3.2445817671        1.8555018281        5.8474694744
 Ga         3.2471283480        1.8562519932        7.8467360059
  N         3.2448834197       -0.0147008226        8.4502117334
 Ga         3.2478418728       -0.0142562302       10.4458535430
  N         3.2518701829        1.8571347586       11.0508517743
 Ga         3.2578126128        1.8539011353       13.0480709758
  N         3.2562544873       -0.0163791976       13.6601144722
 Ga         3.2755030800       -0.0201093477       15.6671101112
  N         3.2763145332        1.8610284942       16.2213197999
 Ga         3.3384780261        1.8543856322       18.2471929526
  N         3.3116944730       -0.0281952763       18.7111373767
 Ga         1.6221852695        2.7909166370        0.3237430151
  N         1.6292595727        4.6603791810        0.6076150312
 Ga         1.6012633542        4.6757799361        2.6370875805
  N         1.6226652113        2.7899444649        3.2289726184
 Ga         1.6242353424        2.7908962597        5.2405719012
  N         1.6297750338        4.6611374984        5.8483431632
 Ga         1.6301193570        4.6615807662        7.8480882542
  N         1.6261566282        2.7903365310        8.4501130767
 Ga         1.6290183296        2.7917114140       10.4458392067
  N         1.6273983602        4.6627286782       11.0489634179
 Ga         1.6296199257        4.6632477112       13.0441462829
  N         1.6332010946        2.7877935962       13.6435567923
 Ga         1.6395886372        2.7805280403       15.6378244269
  N         1.6302204212        4.6640846556       16.1878235375
 Ga         1.6764122736        4.6446761507       18.1863781801
  N         1.7066275452        2.7807986696       18.6352329784
 Ga         0.0031563085        5.5957398106       -0.5486350698
  N         0.0059447119        7.4707446408        0.6073490784
 Ga         0.0060599129        7.4384242497        2.6369472680
  N         0.0030397031        5.5951759001        3.2695238627
 Ga         0.0046492358        5.5962072892        5.2595096433
  N         0.0074269133        7.4707592369        5.8477219922
 Ga         0.0088389346        7.4693000893        7.8471406520
  N         0.0048963356        5.5956719177        8.4474857857
 Ga         0.0060877605        5.5971119781       10.4445688315
  N         0.0119249034        7.4690397395       11.0461526749
 Ga         0.0141387898        7.4711487027       13.0393265794
  N         0.0062835443        5.6013174990       13.6453924310
 Ga         0.0015932663        5.6007446574       15.6412024858
  N         0.0369616896        7.4572200753       16.2807526107
 Ga         0.0889762535        7.4454861439       18.3637407811
  N         0.1461082104        5.5922656988       18.9002710437
 Ga         6.4869412134       -0.0150599458        0.3233136972
  N         6.4937652265        1.8550286132        0.6062492283
 Ga         6.4661744152        1.8702173361        2.6369131052
  N         6.4883591788       -0.0153583611        3.2288478028
 Ga         6.4897594475       -0.0146130671        5.2405669479
  N         6.4945586843        1.8559023466        5.8480014137
 Ga         6.4945441686        1.8569912583        7.8474534431
  N         6.4909569061       -0.0135935299        8.4512591080
 Ga         6.4941512092       -0.0111657899       10.4475822357
  N         6.4965831071        1.8610815758       11.0515688916
 Ga         6.5008353385        1.8654025520       13.0477765756
  N         6.4899522521       -0.0063915850       13.6429409518
 Ga         6.5037397560        0.0075573794       15.6498571105
  N         6.5388628820        1.8864578563       16.2677331981
 Ga         6.7678400514        1.9882478198       18.3579132942
  N         6.5724665290        0.0265586551       18.6452138507
 Ga         4.8675652791        2.7915729583       -0.5411427955
  N         4.8709765823        4.6648531864        0.6071507968
 Ga         4.8708072829        4.6334064800        2.6374196151
  N         4.8682797311        2.7899354131        3.2691642233
 Ga         4.8695828347        2.7911275258        5.2593140868
  N         4.8721599829        4.6652071390        5.8480815312
 Ga         4.8729074855        4.6639501826        7.8475341127
  N         4.8709219434        2.7914740353        8.4503188044
 Ga         4.8740209436        2.7953259406       10.4491663715
  N         4.8803295358        4.6658254259       11.0576284356
 Ga         4.8816184685        4.6707156938       13.0596541198
  N         4.8769786235        2.7957802113       13.6568102750
 Ga         4.8929194875        2.7962238356       15.6746577277
  N         4.8698611704        4.6740635721       16.1700356006
 Ga         4.9280347710        4.6572559196       19.1013106738
  N         4.9854280731        2.7704944856       18.7291808149
 Ga         3.2486051120        5.5947734231        0.3233048826
  N         3.2478484882        7.4654524557        0.6063817645
 Ga         3.2756816339        7.4806871240        2.6376835135
  N         3.2486615113        5.5955962874        3.2289927029
 Ga         3.2500706437        5.5963743661        5.2403614602
  N         3.2504971404        7.4661551885        5.8493537643
 Ga         3.2531451184        7.4666568919        7.8495739347
  N         3.2515637178        5.5959186687        8.4554872919
 Ga         3.2550368165        5.5974785339       10.4546153894
  N         3.2562706087        7.4715406003       11.0514475109
 Ga         3.2589400170        7.4719539163       13.0491687386
  N         3.2495389504        5.5966224376       13.6340938842
 Ga         3.2566702138        5.6072414961       15.6412958110
  N         3.2815645011        7.4907778443       16.1541278912
 Ga         3.3225338580        7.4940234143       18.1678182301
  N         3.3588610922        5.5725706362       18.4763443046
  O         1.5339034379        5.0172673852       21.2177051190
  H         0.9851122503        5.4160982307       20.4703707058
  C         0.7008676000        3.9066021951       21.7055652039
  H        -0.1163793605        3.4469101689       20.9531959328
  H         1.4489377882        3.1887896856       22.1097436275
  H         0.2599863725        4.3037518924       22.6503955172
  O         4.2284219073        4.7186189521       21.0753214854
  H         3.2179726180        4.8595422102       21.0792807513
  C         4.5510982933        3.5987438288       21.9420508254
  H         4.1178456128        2.6637690369       21.5604639613
  H         5.6429282385        3.5039459557       21.9649490192
  H         4.1787181082        3.8108376666       22.9521357006
     156
 i =        3, E =     -6136.5197758077
 Ga        -0.0031747747       -0.0156724831       -0.5300155044
  N        -0.0002692270        1.8588348030        0.6060318759
 Ga        -0.0002847696        1.8275395172        2.6375814028
  N        -0.0033657674       -0.0157252394        3.2696824663
 Ga        -0.0021277816       -0.0148393126        5.2600890770
  N         0.0008905304        1.8595010598        5.8489910934
 Ga         0.0022841201        1.8583688638        7.8483505110
  N         0.0008369508       -0.0147386633        8.4505005013
 Ga         0.0035264174       -0.0144036148       10.4486357006
  N         0.0043295955        1.8600797870       11.0425806299
 Ga         0.0113077876        1.8631846483       13.0318303003
  N         0.0167725064       -0.0069328980       13.6294234087
 Ga         0.0190768795        0.0013367412       15.6218565705
  N         0.0060635541        1.8665212205       16.2507909416
 Ga         0.0957314841        1.8589565464       18.3329376746
  N         0.0525400659       -0.0336967556       18.7058716352
 Ga        -1.6233601773        2.7905801363        0.3234972313
  N        -1.6244389780        4.6599087425        0.6077501557
 Ga        -1.5958259510        4.6756564942        2.6366645235
  N        -1.6224189927        2.7898425498        3.2286431063
 Ga        -1.6214223391        2.7905886645        5.2398327928
  N        -1.6212514078        4.6610299078        5.8471497832
 Ga        -1.6185496870        4.6609739015        7.8454435574
  N        -1.6200048723        2.7917290102        8.4508759693
 Ga        -1.6179149160        2.7945620986       10.4452890035
  N        -1.6163970391        4.6650283835       11.0516747003
 Ga        -1.6158904396        4.6716974023       13.0463875151
  N        -1.6104411692        2.7987496014       13.6405688745
 Ga        -1.5819680694        2.8194632578       15.6302534081
  N        -1.5869893534        4.6661944445       16.3304050704
 Ga        -1.4846683984        4.6775356859       18.4111904846
  N        -1.2130797875        2.9267538687       19.5172612122
 Ga        -3.2432077190        5.5948221145        0.3234691861
  N        -3.2370072582        7.4658862855        0.6060950324
 Ga        -3.2645805681        7.4809298043        2.6375267686
  N        -3.2425355913        5.5957412988        3.2287436020
 Ga        -3.2415721195        5.5962693781        5.2395607243
  N        -3.2358723611        7.4663834585        5.8476043997
 Ga        -3.2359395322        7.4676788138        7.8463136836
  N        -3.2395230486        5.5963471125        8.4501593296
 Ga        -3.2377537290        5.5972896439       10.4455345105
  N        -3.2312606955        7.4669265019       11.0539023056
 Ga        -3.2227831387        7.4627092055       13.0518809673
  N        -3.2295652667        5.5965234609       13.6959946053
 Ga        -3.2149331822        5.5912706985       15.7350209141
  N        -3.2239498799        7.4881334747       16.2535326795
 Ga        -3.1713980109        7.4604921556       18.3139380323
  N        -3.1558659169        5.5872525372       18.8230630008
 Ga         3.2434083031       -0.0154907916        0.3237977650
  N         3.2406557216        1.8543190106        0.6069560466
 Ga         3.2691807519        1.8701893874        2.6370514289
  N         3.2422582867       -0.0158375164        3.2285182474
 Ga         3.2440209584       -0.0147263852        5.2396439572
  N         3.2446029862        1.8554834315        5.8479702766
 Ga         3.2464756830        1.8562322441        7.8470455380
  N         3.2452445488       -0.0147678140        8.4498377954
 Ga         3.2481681400       -0.0138954127       10.4445300733
  N         3.2509378939        1.8571873477       11.0504295676
 Ga         3.2607925258        1.8565997457       13.0471818538
  N         3.2559929681       -0.0150499163       13.6620237028
 Ga         3.2793051856       -0.0281050104       15.6711094243
  N         3.2691728714        1.8567598281       16.2204721275
 Ga         3.3713946234        1.8454601361       18.2523554252
  N         3.3221101570       -0.0281483517       18.7124706945
 Ga         1.6224758311        2.7912596545        0.3234085186
  N         1.6289905218        4.6605254312        0.6080470784
 Ga         1.6013564017        4.6757574168        2.6369783810
  N         1.6222849794        2.7900034649        3.2293858551
 Ga         1.6240252808        2.7909087185        5.2408068366
  N         1.6298168086        4.6612799456        5.8490811782
 Ga         1.6297777759        4.6611689658        7.8486538117
  N         1.6259008725        2.7901874475        8.4499571892
 Ga         1.6288024637        2.7916507799       10.4444788003
  N         1.6269950679        4.6614388407       11.0491264172
 Ga         1.6297781786        4.6631972953       13.0453141506
  N         1.6335396633        2.7854847815       13.6445037696
 Ga         1.6340714035        2.7877401839       15.6418273987
  N         1.6295886071        4.6683507714       16.1897858884
 Ga         1.6788072102        4.6462680608       18.1901001191
  N         1.7516228941        2.7881374236       18.6414358588
 Ga         0.0031966453        5.5957497411       -0.5501511762
  N         0.0059887062        7.4703746340        0.6078232689
 Ga         0.0061182630        7.4384821082        2.6368868556
  N         0.0030591932        5.5951466847        3.2696027062
 Ga         0.0047286454        5.5962782312        5.2593361907
  N         0.0075037774        7.4707641213        5.8480326521
 Ga         0.0088594074        7.4693103032        7.8469467955
  N         0.0049580123        5.5961525780        8.4477689034
 Ga         0.0067720877        5.5973637206       10.4445088928
  N         0.0117506607        7.4696164163       11.0474951893
 Ga         0.0168195856        7.4721888162       13.0420762754
  N         0.0042882013        5.6014836631       13.6464695978
 Ga         0.0003278002        5.6047993361       15.6462243777
  N         0.0432804166        7.4602058682       16.2835432198
 Ga         0.1046791652        7.4818929600       18.3556178980
  N         0.1568053007        5.6288840870       18.8679666585
 Ga         6.4865164878       -0.0150475488        0.3230416163
  N         6.4941713819        1.8547753700        0.6065676036
 Ga         6.4666053682        1.8700014459        2.6367882323
  N         6.4886376179       -0.0157418820        3.2291514343
 Ga         6.4898421411       -0.0147365771        5.2405437057
  N         6.4946798252        1.8558358588        5.8484936383
 Ga         6.4952825675        1.8569001935        7.8477366405
  N         6.4906814956       -0.0137256392        8.4510903261
 Ga         6.4942529798       -0.0111724611       10.4468207438
  N         6.4983130496        1.8611960924       11.0492715186
 Ga         6.4984512953        1.8646462820       13.0436431816
  N         6.4886519816       -0.0008813893       13.6571311014
 Ga         6.5072286715        0.0218865862       15.6698677929
  N         6.5699991555        1.9001052240       16.3256122954
 Ga         6.8283436798        2.0239738969       18.4430469598
  N         6.6013336272        0.0425625810       18.6381769194
 Ga         4.8676241824        2.7915750785       -0.5441724868
  N         4.8710199592        4.6652675993        0.6074356587
 Ga         4.8708615015        4.6337740899        2.6371986753
  N         4.8683527911        2.7899785872        3.2691301274
 Ga         4.8696581148        2.7909588371        5.2591141946
  N         4.8722582343        4.6654315257        5.8482945550
 Ga         4.8728513422        4.6640152569        7.8476982528
  N         4.8710202464        2.7911166821        8.4502865687
 Ga         4.8742200608        2.7940018331       10.4490541465
  N         4.8799249624        4.6648419306       11.0601723221
 Ga         4.8814468746        4.6654443058       13.0658248638
  N         4.8806716619        2.7879191698       13.6792164451
 Ga         4.9126479313        2.7889101383       15.7064489934
  N         4.8679568225        4.6742991039       16.1848128754
 Ga         4.9290128411        4.6690322394       19.1072433669
  N         5.0147398174        2.7899409487       18.7222146804
 Ga         3.2484390434        5.5942891728        0.3230257830
  N         3.2477017788        7.4652687022        0.6056355303
 Ga         3.2759025465        7.4808263991        2.6371183879
  N         3.2485581726        5.5959812300        3.2291715890
 Ga         3.2498218500        5.5966076458        5.2401615171
  N         3.2506506284        7.4662125206        5.8499581518
 Ga         3.2533250411        7.4672107655        7.8498828877
  N         3.2513856428        5.5962131203        8.4559117936
 Ga         3.2540764272        5.5981769701       10.4554547007
  N         3.2566493049        7.4730178496       11.0533178058
 Ga         3.2562569253        7.4740666356       13.0527654207
  N         3.2500867783        5.5981372771       13.6345604710
 Ga         3.2552945856        5.6090957747       15.6433854368
  N         3.2784509822        7.4897535014       16.1553360450
 Ga         3.3335677848        7.4928741041       18.1632420829
  N         3.3615676013        5.5755294419       18.4713941730
  O         1.4712615914        4.9416043647       21.1644982380
  H         0.9692350079        5.4504127854       20.4380543159
  C         0.6107849419        3.8436866886       21.6546110878