     156
 i =        1, E =     -6136.5078930294
 Ga        -0.0031972705       -0.0158329567       -0.5375908820
  N        -0.0002729692        1.8584779224        0.6070060597
 Ga        -0.0003340911        1.8280292746        2.6383743212
  N        -0.0033776306       -0.0156159355        3.2696635644
 Ga        -0.0021651629       -0.0150505800        5.2603816100
  N         0.0008175614        1.8596742171        5.8482877725
 Ga         0.0022931674        1.8581497474        7.8482633985
  N         0.0008337221       -0.0150046826        8.4506038011
 Ga         0.0037476591       -0.0157257357       10.4498073510
  N         0.0042749494        1.8600706585       11.0415342069
 Ga         0.0095607752        1.8622543796       13.0320086292
  N         0.0153359722       -0.0087503213       13.6324942258
 Ga         0.0304271422       -0.0177915148       15.6248660181
  N         0.0198923832        1.8575383793       16.2217451100
 Ga         0.0448460433        1.8472529463       18.2879314132
  N         0.0484396849       -0.0267902425       18.6983737575
 Ga        -1.6230535057        2.7898790215        0.3238590995
  N        -1.6248093160        4.6597398815        0.6067071435
 Ga        -1.5956880242        4.6757301926        2.6367599553
  N        -1.6231060782        2.7899846868        3.2283024052
 Ga        -1.6217675356        2.7906188953        5.2398497424
  N        -1.6212821792        4.6608904278        5.8464791559
 Ga        -1.6191122576        4.6615347068        7.8452247228
  N        -1.6203689143        2.7918381831        8.4512079514
 Ga        -1.6194720480        2.7953528938       10.4472010078
  N        -1.6174688050        4.6668751045       11.0551850596
 Ga        -1.6181862574        4.6714201053       13.0527446660
  N        -1.6072603391        2.7998485616       13.6584153501
 Ga        -1.6007482972        2.8164659002       15.6629802123
  N        -1.5863980586        4.6838745486       16.3117645982
 Ga        -1.5146646452        4.6808248339       18.3864127832
  N        -1.5542791547        2.7886097844       18.7556740055
 Ga        -3.2437385645        5.5955550375        0.3237776538
  N        -3.2373752426        7.4661486234        0.6072640312
 Ga        -3.2641808088        7.4807090229        2.6385134131
  N        -3.2426867474        5.5950414805        3.2286411471
 Ga        -3.2419166259        5.5960175058        5.2400980353
  N        -3.2357829687        7.4663006250        5.8469791006
 Ga        -3.2358770474        7.4670834177        7.8461589394
  N        -3.2398783990        5.5961817226        8.4495284501
 Ga        -3.2389537521        5.5972409226       10.4449888983
  N        -3.2308420545        7.4658229685       11.0556231340
 Ga        -3.2219132051        7.4629385639       13.0544232412
  N        -3.2355764847        5.5972798006       13.6928813918
 Ga        -3.2226401144        5.5919361363       15.7299596551
  N        -3.2086067372        7.4742459787       16.2705443247
 Ga        -3.1858733073        7.4478429776       18.3278112872
  N        -3.1587134138        5.5862824616       18.8506955611
 Ga         3.2425511353       -0.0154445184        0.3241647850
  N         3.2414640670        1.8548065738        0.6064077074
 Ga         3.2696598624        1.8704491270        2.6372731106
  N         3.2428080265       -0.0153018587        3.2283035480
 Ga         3.2440036727       -0.0146004066        5.2399755650
  N         3.2446613055        1.8555403814        5.8474804415
 Ga         3.2471219141        1.8563012559        7.8469047676
  N         3.2448898106       -0.0146530052        8.4498594350
 Ga         3.2477504688       -0.0140958823       10.4454129894
  N         3.2516263848        1.8569298460       11.0512157491
 Ga         3.2584328318        1.8539917007       13.0485773098
  N         3.2578023957       -0.0166594737       13.6599115130
 Ga         3.2698034282       -0.0188001587       15.6658088164
  N         3.2837286615        1.8547154080       16.2308743932
 Ga         3.3197407961        1.8603042917       18.2553162909
  N         3.3063608988       -0.0257022144       18.7098909811
 Ga         1.6221356294        2.7905838852        0.3237612704
  N         1.6293375541        4.6603703474        0.6070279269
 Ga         1.6011640853        4.6758749422        2.6371238092
  N         1.6229363847        2.7900954470        3.2290379601
 Ga         1.6243016967        2.7909481934        5.2409002401
  N         1.6297316045        4.6611464588        5.8483966988
 Ga         1.6302392905        4.6616197287        7.8483669121
  N         1.6261117521        2.7902916511        8.4496282782
 Ga         1.6296899777        2.7921077070       10.4450825808
  N         1.6277762839        4.6624138521       11.0490776373
 Ga         1.6291445747        4.6647165316       13.0447404439
  N         1.6312526181        2.7873678065       13.6464223377
 Ga         1.6546418288        2.7849816131       15.6411285664
  N         1.6291587121        4.6650317115       16.1844346128
 Ga         1.6783664151        4.6402459854       18.1815002933
  N         1.6849042680        2.7776342322       18.6346295578
 Ga         0.0031267697        5.5957809289       -0.5460639267
  N         0.0059631061        7.4707669091        0.6066938893
 Ga         0.0060797814        7.4382906026        2.6368403478
  N         0.0030123458        5.5951899666        3.2695522089
 Ga         0.0046920341        5.5962069568        5.2597918216
  N         0.0074732374        7.4707307925        5.8477477845
 Ga         0.0089323604        7.4693596699        7.8473859551
  N         0.0049612637        5.5956918868        8.4475097419
 Ga         0.0067199511        5.5972396018       10.4447862432
  N         0.0116957047        7.4694080550       11.0449510960
 Ga         0.0151577199        7.4714066213       13.0370490462
  N         0.0057007422        5.6027631450       13.6456670160
 Ga         0.0064184166        5.6014667047       15.6418882090
  N         0.0373072138        7.4659062341       16.2693087798
 Ga         0.0724386243        7.4324259200       18.3564911052
  N         0.1383356679        5.5810755015       18.8972439943
 Ga         6.4873194501       -0.0150112786        0.3233791961
  N         6.4933547108        1.8552431789        0.6060799271
 Ga         6.4660949521        1.8703006983        2.6370726148
  N         6.4880555594       -0.0152152401        3.2289170029
 Ga         6.4897976270       -0.0146100552        5.2408719126
  N         6.4945650606        1.8559331684        5.8479451869
 Ga         6.4944341468        1.8568657981        7.8475093950
  N         6.4910152426       -0.0135251665        8.4515931074
 Ga         6.4945754940       -0.0112824201       10.4481932958
  N         6.4964393312        1.8611466269       11.0529075970
 Ga         6.5008926281        1.8654485159       13.0500960789
  N         6.4899543300       -0.0070142807       13.6381408127
 Ga         6.5089343825       -0.0001014700       15.6390398862
  N         6.5164115320        1.8736475810       16.2291682598
 Ga         6.5725356694        1.8765623957       18.2703810401
  N         6.5608861039       -0.0215406358       18.6559562361
 Ga         4.8675978417        2.7916177364       -0.5407195127
  N         4.8709926203        4.6643843135        0.6069533440
 Ga         4.8708434157        4.6332339077        2.6375493445
  N         4.8683123829        2.7899033862        3.2692933979
 Ga         4.8696074783        2.7911736599        5.2595345820
  N         4.8722550638        4.6651828414        5.8481355651
 Ga         4.8727502421        4.6640325192        7.8478292533
  N         4.8709692791        2.7914544708        8.4504763973
 Ga         4.8737845792        2.7956395139       10.4497200891
  N         4.8796236577        4.6660303945       11.0583927944
 Ga         4.8810024529        4.6697967535       13.0608777348
  N         4.8759931342        2.7957787282       13.6539363824
 Ga         4.8829543452        2.8016769246       15.6676706512
  N         4.8620652466        4.6739549885       16.1684419268
 Ga         4.9332898399        4.6623408585       19.0908918415
  N         4.9399695010        2.7835440986       18.7398921084
 Ga         3.2489114559        5.5950410779        0.3233222696
  N         3.2480356580        7.4655301363        0.6067747023
 Ga         3.2754807685        7.4805716157        2.6380906102
  N         3.2486686005        5.5952812521        3.2290920576
 Ga         3.2500911474        5.5963524655        5.2407669510
  N         3.2504882056        7.4661953511        5.8494266264
 Ga         3.2531338092        7.4666191493        7.8498758870
  N         3.2515173741        5.5959994999        8.4552054927
 Ga         3.2549087290        5.5976509474       10.4543296034
  N         3.2566799780        7.4714395288       11.0506552502
 Ga         3.2573399168        7.4729086209       13.0478704353
  N         3.2491309342        5.5986962208       13.6294677238
 Ga         3.2564944531        5.6058743343       15.6353073311
  N         3.2799338603        7.4864946879       16.1588134869
 Ga         3.3269080363        7.4924076254       18.1721441231
  N         3.3625903798        5.5701844806       18.4641082638
  O         1.6433490668        5.2055663998       21.1856324025
  H         0.9780998988        5.4246321598       20.4434522436
  C         0.7832340396        3.8898783102       21.9435321988
  H         0.0872566793        3.5175192692       21.1710649410
  H         1.5693192102        3.1665410596       22.2079738781
  H         0.2910208786        4.3736967653       22.8043184212
  O         4.2549871024        4.7162814671       21.0738069824
  H         3.2483253590        4.8649201385       21.0696886163
  C         4.5521987868        3.5945663975       21.9447134961
  H         4.1175102658        2.6616733092       21.5596439956
  H         5.6439934813        3.5048437075       21.9645564394
  H         4.1781721344        3.8120561052       22.9533276318
     156
 i =        2, E =     -6136.5631712188
 Ga        -0.0031822529       -0.0158293245       -0.5430614271
  N        -0.0002211920        1.8588593197        0.6073771257
 Ga        -0.0002039342        1.8275983024        2.6377302745
  N        -0.0033071275       -0.0156326772        3.2702019660
 Ga        -0.0021202298       -0.0150381093        5.2602767171
  N         0.0009663642        1.8597835604        5.8486425587
 Ga         0.0025679532        1.8583688416        7.8484917444
  N         0.0010736540       -0.0151184999        8.4496134606
 Ga         0.0043817423       -0.0153605128       10.4484457397
  N         0.0043398105        1.8598615205       11.0465874315
 Ga         0.0110135499        1.8616256784       13.0386923040
  N         0.0171885073       -0.0093944032       13.6401193236
 Ga         0.0337913002       -0.0274030561       15.6334457452
  N         0.0268928622        1.8557135307       16.2163083467
 Ga         0.0470034245        1.8522634332       18.2779247765
  N         0.0424102763       -0.0185899561       18.6880459587
 Ga        -1.6226051444        2.7897211474        0.3245834935
  N        -1.6246861025        4.6597358806        0.6063557020
 Ga        -1.5959063889        4.6756012141        2.6365233654
  N        -1.6228634968        2.7898306838        3.2282668951
 Ga        -1.6216867664        2.7907585568        5.2396786464
  N        -1.6210994533        4.6610537143        5.8468310588
 Ga        -1.6189994842        4.6619809201        7.8454483704
  N        -1.6204111878        2.7920765672        8.4509516527
 Ga        -1.6191259884        2.7955946286       10.4467634308
  N        -1.6176573526        4.6666413625       11.0564400848
 Ga        -1.6190239193        4.6701268691       13.0544880342
  N        -1.6056590564        2.7992575833       13.6646257824
 Ga        -1.6018719809        2.8144309150       15.6691909243
  N        -1.5899830426        4.6786077932       16.3095424146
 Ga        -1.5198514293        4.6800575590       18.3832527546
  N        -1.5507789145        2.7865301709       18.7419939037
 Ga        -3.2435778732        5.5959329875        0.3245274255
  N        -3.2369267538        7.4659459022        0.6076371905
 Ga        -3.2644546859        7.4808514587        2.6379118313
  N        -3.2426633287        5.5952033803        3.2286121224
 Ga        -3.2418195858        5.5960185796        5.2398696025
  N        -3.2356101668        7.4663762367        5.8470971547
 Ga        -3.2355281663        7.4670107874        7.8460353399
  N        -3.2398286412        5.5963778206        8.4501607644
 Ga        -3.2390597907        5.5972962129       10.4459054287
  N        -3.2309746289        7.4661998971       11.0554300474
 Ga        -3.2227538538        7.4621010368       13.0542186758
  N        -3.2365573365        5.5968445460       13.6926004670
 Ga        -3.2244900774        5.5899729486       15.7302245927
  N        -3.2031049280        7.4642685030       16.2762778966
 Ga        -3.1932495743        7.4441884641       18.3322180794
  N        -3.1554574701        5.5865818995       18.8578333202
 Ga         3.2423531575       -0.0157008641        0.3248706909
  N         3.2416239370        1.8548560698        0.6060113213
 Ga         3.2695648630        1.8703437189        2.6371626899
  N         3.2426883437       -0.0154010494        3.2282537630
 Ga         3.2442530752       -0.0145794666        5.2397248284
  N         3.2447104724        1.8555490059        5.8476953348
 Ga         3.2473200261        1.8562730813        7.8468420969
  N         3.2448596343       -0.0145147317        8.4499408317
 Ga         3.2475385405       -0.0138826688       10.4453041429
  N         3.2521262574        1.8571036959       11.0514923799
 Ga         3.2595192392        1.8528456226       13.0484905407
  N         3.2554307974       -0.0166310991       13.6613963578
 Ga         3.2633581896       -0.0183979670       15.6677000633
  N         3.2842226036        1.8506613603       16.2381707927
 Ga         3.3233261463        1.8608591846       18.2647937615
  N         3.2974290620       -0.0224866289       18.7307107206
 Ga         1.6218149117        2.7904494258        0.3245898853
  N         1.6293159802        4.6603782455        0.6067378568
 Ga         1.6015967534        4.6756789233        2.6369117771
  N         1.6228635235        2.7899579349        3.2290135618
 Ga         1.6244458467        2.7911221296        5.2406433654
  N         1.6297821056        4.6612539232        5.8486438396
 Ga         1.6303213059        4.6619144540        7.8483873839
  N         1.6265717929        2.7905953772        8.4496487687
 Ga         1.6296956549        2.7921651920       10.4450926933
  N         1.6277597389        4.6626977931       11.0472911451
 Ga         1.6260680162        4.6654730945       13.0428997806
  N         1.6344576863        2.7886645462       13.6473187939
 Ga         1.6595188889        2.7883403162       15.6408919560
  N         1.6261866809        4.6631981024       16.1787458161
 Ga         1.6795859928        4.6433284923       18.1782145602
  N         1.6842860923        2.7815454385       18.6244321678
 Ga         0.0032483169        5.5956906258       -0.5450406349
  N         0.0060240131        7.4706570112        0.6064189849
 Ga         0.0061626447        7.4386110578        2.6366862115
  N         0.0031336982        5.5951643372        3.2689130052
 Ga         0.0048561916        5.5963104541        5.2593553910
  N         0.0075712899        7.4707119291        5.8482918788
 Ga         0.0088895277        7.4693786091        7.8477776346
  N         0.0051367984        5.5957465180        8.4475677819
 Ga         0.0063164521        5.5970187225       10.4447791545
  N         0.0116931302        7.4695678267       11.0441635083
 Ga         0.0142397107        7.4728711988       13.0363548302
  N         0.0037955275        5.6044818544       13.6454688312
 Ga         0.0065426247        5.5981008889       15.6436570804
  N         0.0405843287        7.4725682987       16.2581304175
 Ga         0.0593292022        7.4400750867       18.3477568256
  N         0.1310765375        5.5851707548       18.8782901662
 Ga         6.4876603660       -0.0152776921        0.3241207488
  N         6.4933138880        1.8552983524        0.6056728549
 Ga         6.4662974689        1.8701396142        2.6369381496
  N         6.4883145267       -0.0153198771        3.2289204407
 Ga         6.4897988693       -0.0146605533        5.2406522736
  N         6.4946917310        1.8558847626        5.8481709911
 Ga         6.4943657059        1.8568994801        7.8475192415
  N         6.4910223403       -0.0134240764        8.4510900065
 Ga         6.4945403467       -0.0104466838       10.4475861251
  N         6.4967038667        1.8618971369       11.0547850985
 Ga         6.5018311767        1.8675953339       13.0525145411
  N         6.4916784860       -0.0056681062       13.6333152975
 Ga         6.5114333503        0.0017025370       15.6326667877
  N         6.5166631056        1.8709501573       16.2352780664
 Ga         6.5724831130        1.8731262979       18.2777055251
  N         6.5568243726       -0.0251245150       18.6637993922
 Ga         4.8676699138        2.7915031620       -0.5387674932
  N         4.8710665388        4.6642147594        0.6065255589
 Ga         4.8708808543        4.6334354927        2.6374116625
  N         4.8683915785        2.7899194357        3.2689658354
 Ga         4.8697007739        2.7912515044        5.2593174074
  N         4.8723457937        4.6652959136        5.8484071416
 Ga         4.8728495194        4.6642911625        7.8479522609
  N         4.8709916172        2.7916129993        8.4502447039
 Ga         4.8740398216        2.7956607240       10.4491856128
  N         4.8790088549        4.6657121460       11.0581289556
 Ga         4.8805887718        4.6701866164       13.0613891397
  N         4.8751842848        2.7967058257       13.6585761145
 Ga         4.8826080272        2.7988552501       15.6751441271
  N         4.8542595184        4.6743288969       16.1580222614
 Ga         4.9418226060        4.6581889892       19.0968528327
  N         4.9425875979        2.7829149310       18.7441144647
 Ga         3.2488659353        5.5953821539        0.3241303039
  N         3.2477220525        7.4652982293        0.6072574549
 Ga         3.2758780517        7.4806869255        2.6375772482
  N         3.2487786934        5.5954414535        3.2291470512
 Ga         3.2501467574        5.5963716066        5.2405898067
  N         3.2505166707        7.4662233105        5.8496374925
 Ga         3.2530852597        7.4665598691        7.8499053145
  N         3.2515404863        5.5960597532        8.4547761226
 Ga         3.2548625031        5.5980278828       10.4538809430
  N         3.2570862418        7.4724204672       11.0488447375
 Ga         3.2590369641        7.4750475150       13.0460625084
  N         3.2463192929        5.6007906708       13.6223638959
 Ga         3.2541140296        5.6084095065       15.6278493708
  N         3.2772107872        7.4853941590       16.1604741290
 Ga         3.3225616579        7.4901675435       18.1745114399
  N         3.3786678683        5.5632252011       18.4441332508
  O         1.6934268878        5.3606360249       21.1736219373
  H         0.9968368389        5.4587132823       20.4094690539
  C         0.7293680699        3.7886484521       21.9907222105
  H         0.0615770034        3.4869029660       21.1697179579
  H         1.5725291071        3.1303141382       22.2282966138
  H         0.2783010869        4.3457309371       22.8228026632
  O         4.2515371277        4.7095850041       21.0734509718
  H         3.2476365744        4.8996917831       21.0450903005
  C         4.5691840937        3.5951561983       21.9426698464
  H         4.1207698782        2.6668526364       21.5600130446
  H         5.6572613447        3.4833957774       21.9802272094
  H         4.1805230656        3.8114169029       22.9469531155
     156
 i =        3, E =     -6136.5728771391
 Ga        -0.0031395945       -0.0158375904       -0.5456994334
  N        -0.0001644035        1.8590088550        0.6075671058
 Ga        -0.0001657705        1.8273541654        2.6377305879
  N        -0.0032016673       -0.0156556206        3.2705232358
 Ga        -0.0019525707       -0.0148951702        5.2605721141
  N         0.0010396963        1.8599107347        5.8482405885
 Ga         0.0026849292        1.8586707553        7.8478367308
  N         0.0014061983       -0.0144761752        8.4497449735
 Ga         0.0050134249       -0.0141146601       10.4483684647
  N         0.0046553790        1.8598057763       11.0502681140
 Ga         0.0121933716        1.8601209775       13.0438081527
  N         0.0180969926       -0.0117145269       13.6430931835
 Ga         0.0348995773       -0.0312695538       15.6367096803
  N         0.0311470882        1.8541608005       16.2127282437
 Ga         0.0479186074        1.8551494447       18.2704051626
  N         0.0381375449       -0.0153580449       18.6815694319
 Ga        -1.6223619149        2.7899071263        0.3247374494
  N        -1.6243040165        4.6599190137        0.6067441156
 Ga        -1.5957833734        4.6755751679        2.6369781272
  N        -1.6226889374        2.7898019500        3.2284138429
 Ga        -1.6214554384        2.7908274198        5.2399357358
  N        -1.6211034684        4.6610918413        5.8465849524
 Ga        -1.6190710203        4.6617739181        7.8453495658
  N        -1.6199328634        2.7919834304        8.4522913849
 Ga        -1.6183388075        2.7952969113       10.4482460335
  N        -1.6179463269        4.6660659625       11.0575281784
 Ga        -1.6196499382        4.6694757266       13.0559677620
  N        -1.6046843684        2.7987626253       13.6672906678
 Ga        -1.6013498303        2.8117548055       15.6718177648
  N        -1.5929498807        4.6746027008       16.3070671610
 Ga        -1.5203950189        4.6823372994       18.3806898229
  N        -1.5481547936        2.7872095500       18.7370117014
 Ga        -3.2432418773        5.5959906494        0.3246053469
  N        -3.2366887392        7.4658334066        0.6077484245
 Ga        -3.2645737590        7.4809630695        2.6378183290
  N        -3.2425337250        5.5953101789        3.2286123377
 Ga        -3.2416590225        5.5961366933        5.2399930155
  N        -3.2355259761        7.4663401346        5.8468796020
 Ga        -3.2355312007        7.4670517008        7.8458315163
  N        -3.2396032073        5.5965221882        8.4506391309
 Ga        -3.2389506966        5.5970034497       10.4467438886
  N        -3.2314739818        7.4661167981       11.0551525509
 Ga        -3.2228962801        7.4619033340       13.0537836483
  N        -3.2384616417        5.5962131552       13.6901369978
 Ga        -3.2247272452        5.5889196613       15.7274552181
  N        -3.2016666441        7.4588061997       16.2801910505
 Ga        -3.1975302679        7.4427676699       18.3368231120
  N        -3.1519709920        5.5870009428       18.8657109318
 Ga         3.2425141280       -0.0159958097        0.3249595344
  N         3.2416445846        1.8547908454        0.6061302455
 Ga         3.2696159235        1.8702891252        2.6376584466
  N         3.2427222379       -0.0155004513        3.2283159714
 Ga         3.2442106672       -0.0145903810        5.2399366132
  N         3.2448432112        1.8556146455        5.8473411995
 Ga         3.2472405354        1.8565638845        7.8466580646
  N         3.2447623153       -0.0142858359        8.4500343097
 Ga         3.2471619980       -0.0137250861       10.4456198346
  N         3.2528176836        1.8571582321       11.0518063070
 Ga         3.2599835082        1.8538886937       13.0486836790
  N         3.2539663119       -0.0153547476       13.6603048720
 Ga         3.2607978750       -0.0183534799       15.6668967552
  N         3.2845074669        1.8482616110       16.2437389138
 Ga         3.3224265187        1.8631089067       18.2722546773
  N         3.2938466426       -0.0205737277       18.7413825574
 Ga         1.6216906522        2.7906150477        0.3247105304
  N         1.6290939581        4.6605379539        0.6071677736
 Ga         1.6016218881        4.6756779107        2.6374140372
  N         1.6228707438        2.7898816145        3.2290859819
 Ga         1.6244277378        2.7910954513        5.2408720104
  N         1.6298595929        4.6612734058        5.8483834281
 Ga         1.6303614914        4.6617550759        7.8485025225
  N         1.6263958434        2.7903466842        8.4507714194
 Ga         1.6295942900        2.7917496565       10.4465850636
  N         1.6270926869        4.6627377997       11.0456596351
 Ga         1.6248748264        4.6662948303       13.0407280326
  N         1.6358955414        2.7901622000       13.6466997970
 Ga         1.6625360240        2.7885636694       15.6396461825
  N         1.6238807088        4.6628263583       16.1720233288
 Ga         1.6816598319        4.6454614651       18.1709956297
  N         1.6824995509        2.7869527332       18.6234479218
 Ga         0.0033276326        5.5956254835       -0.5460557470
  N         0.0061007211        7.4702395561        0.6067645630
 Ga         0.0062417174        7.4385466409        2.6370866945
  N         0.0031836588        5.5951888459        3.2691670679
 Ga         0.0048671264        5.5962995972        5.2596290363
  N         0.0076434096        7.4707839701        5.8479508851
 Ga         0.0089805259        7.4695213866        7.8477451422
  N         0.0049130293        5.5957486794        8.4477144224
 Ga         0.0055660595        5.5971615080       10.4452838401
  N         0.0115049042        7.4700551784       11.0443929907
 Ga         0.0134625678        7.4731351429       13.0370869970
  N         0.0029555221        5.6043899237       13.6444300366
 Ga         0.0051576475        5.5979821728       15.6434532272
  N         0.0404346214        7.4760274621       16.2564443161
 Ga         0.0504177311        7.4423765002       18.3445939831
  N         0.1331963416        5.5844723112       18.8679323498
 Ga         6.4876509530       -0.0155789401        0.3241968106
  N         6.4934239435        1.8552161835        0.6057991334
 Ga         6.4664658198        1.8701260190        2.6374495368
  N         6.4884185766       -0.0153910580        3.2290137403
 Ga         6.4899861069       -0.0146049516        5.2409231655
  N         6.4948434541        1.8560220224        5.8477120614
 Ga         6.4948121293        1.8572817935        7.8471402569
  N         6.4910712220       -0.0129027565        8.4516810339
 Ga         6.4947956328       -0.0094446162       10.4486924154
  N         6.4967345632        1.8632657383       11.0553368621
 Ga         6.5026279420        1.8692527223       13.0531104438
  N         6.4925002034       -0.0039609117       13.6307491590
 Ga         6.5101983137        0.0023430017       15.6291611739
  N         6.5174986522        1.8692122351       16.2388659165
 Ga         6.5742608538        1.8691607776       18.2832235377
  N         6.5540032048       -0.0303732429       18.6672642545
 Ga         4.8677611311        2.7914558424       -0.5382408411
  N         4.8711308926        4.6642649685        0.6066149490
 Ga         4.8710126312        4.6334629685        2.6378747182
  N         4.8684817287        2.7899011867        3.2691436205
 Ga         4.8698346184        2.7913478221        5.2596360282
  N         4.8725761931        4.6653809829        5.8481440899
 Ga         4.8730511667        4.6643932681        7.8479492711
  N         4.8712284103        2.7915096880        8.4504468968
 Ga         4.8741528523        2.7960429748       10.4494863656
  N         4.8787907951        4.6657581379       11.0578639816
 Ga         4.8790581469        4.6690108921       13.0611581381
  N         4.8756005042        2.7965342809       13.6616132980
 Ga         4.8822260389        2.7954275436       15.6800444291
  N         4.8488172110        4.6758998324       16.1505775428
 Ga         4.9493347865        4.6520046905       19.0966371094
  N         4.9456497689        2.7766019821       18.7522169977
 Ga         3.2486738880        5.5954435063        0.3241944261
  N         3.2476225808        7.4651751524        0.6074341016
 Ga         3.2761616453        7.4808305787        2.6375268861
  N         3.2488788950        5.5955334512        3.2292067961
 Ga         3.2502806117        5.5964782582        5.2408765575
  N         3.2506803702        7.4663263295        5.8493676366
 Ga         3.2532902814        7.4669271192        7.8498238412
  N         3.2516323574        5.5962966632        8.4547442815
 Ga         3.2546817327        5.5980942338       10.4543053278
  N         3.2582148405        7.4732034123       11.0467606112
 Ga         3.2591777283        7.4770086935       13.0433130417
  N         3.2448353652        5.6031008606       13.6169398717
 Ga         3.2514812246        5.6108222895       15.6212566764
  N         3.2743153454        7.4855021330       16.1606159584
 Ga         3.3190983358        7.4878263588       18.1753530400
  N         3.3910665509        5.5568461217       18.4270240091
  O         1.7227758016        5.4347402004       21.1605572202
  H         1.0358837816        5.5148413867       20.4027653723
  C         0.6945748534        3.7299859033       22.0202138340