     156
 i =        1, E =     -6136.6583523452
 Ga        -0.0031973327       -0.0158329481       -0.5375940924
  N        -0.0002729836        1.8584782009        0.6069990146
 Ga        -0.0003340560        1.8280284747        2.6383715705
  N        -0.0033777080       -0.0156158819        3.2696795704
 Ga        -0.0021654876       -0.0150503335        5.2603982479
  N         0.0008177411        1.8596741516        5.8482849550
 Ga         0.0022945244        1.8581487393        7.8482506597
  N         0.0008328031       -0.0150040375        8.4505744596
 Ga         0.0037448435       -0.0157224686       10.4497894578
  N         0.0042791172        1.8600678922       11.0416074844
 Ga         0.0095904671        1.8622277501       13.0320819563
  N         0.0153212993       -0.0087412888       13.6325588435
 Ga         0.0303872143       -0.0177716756       15.6248319668
  N         0.0199751098        1.8574716533       16.2215791396
 Ga         0.0449253221        1.8471640971       18.2876844024
  N         0.0483679862       -0.0267989405       18.6986350307
 Ga        -1.6230535972        2.7898791485        0.3238563597
  N        -1.6248091173        4.6597399618        0.6067000700
 Ga        -1.5956870576        4.6757306025        2.6367568967
  N        -1.6231061564        2.7899847566        3.2283182269
 Ga        -1.6217673867        2.7906182355        5.2398660763
  N        -1.6212819099        4.6608902834        5.8464743610
 Ga        -1.6191121297        4.6615330715        7.8452106561
  N        -1.6203683366        2.7918360591        8.4511741034
 Ga        -1.6194682746        2.7953379332       10.4471796614
  N        -1.6174705230        4.6668709336       11.0552173607
 Ga        -1.6182075603        4.6713909712       13.0527938772
  N        -1.6072508098        2.7998027793       13.6583795216
 Ga        -1.6007173960        2.8161985158       15.6628975817
  N        -1.5864839467        4.6838135280       16.3112961712
 Ga        -1.5140027268        4.6813161610       18.3868052469
  N        -1.5542588787        2.7884129745       18.7561063894
 Ga        -3.2437384337        5.5955549029        0.3237748233
  N        -3.2373750014        7.4661484968        0.6072569417
 Ga        -3.2641815540        7.4807095343        2.6385106462
  N        -3.2426866461        5.5950413500        3.2286567082
 Ga        -3.2419168132        5.5960176680        5.2401142399
  N        -3.2357831311        7.4663010267        5.8469753734
 Ga        -3.2358782791        7.4670862302        7.8461457788
  N        -3.2398791962        5.5961825105        8.4494913998
 Ga        -3.2389620256        5.5972485055       10.4449662243
  N        -3.2308446442        7.4658296378       11.0556870583
 Ga        -3.2219409285        7.4629855478       13.0544936397
  N        -3.2356058337        5.5972997014       13.6928322275
 Ga        -3.2228612261        5.5920503656       15.7298858744
  N        -3.2086741207        7.4743458286       16.2703454550
 Ga        -3.1859885417        7.4477677028       18.3276355671
  N        -3.1595817313        5.5859577632       18.8509832644
 Ga         3.2425512882       -0.0154444763        0.3241620074
  N         3.2414640824        1.8548065916        0.6064006660
 Ga         3.2696606178        1.8704496443        2.6372701984
  N         3.2428082398       -0.0153017797        3.2283193680
 Ga         3.2440037424       -0.0146000921        5.2399919410
  N         3.2446612590        1.8555405723        5.8474774198
 Ga         3.2471210708        1.8563019630        7.8468919763
  N         3.2448896420       -0.0146520963        8.4498270380
 Ga         3.2477454632       -0.0140878714       10.4453929710
  N         3.2516247095        1.8569315066       11.0512906803
 Ga         3.2584319007        1.8540118722       13.0486538033
  N         3.2577861875       -0.0166347502       13.6599085973
 Ga         3.2696779718       -0.0186755172       15.6657414077
  N         3.2837218785        1.8547694268       16.2307020918
 Ga         3.3198687098        1.8605051331       18.2550855449
  N         3.3062299247       -0.0255253483       18.7102535101
 Ga         1.6221357143        2.7905839865        0.3237585383
  N         1.6293373992        4.6603704100        0.6070209169
 Ga         1.6011632213        4.6758753777        2.6371208323
  N         1.6229364726        2.7900955781        3.2290539387
 Ga         1.6243016257        2.7909479647        5.2409167101
  N         1.6297316384        4.6611462749        5.8483930318
 Ga         1.6302409201        4.6616175608        7.8483534856
  N         1.6261114449        2.7902907743        8.4495982368
 Ga         1.6296901738        2.7920992858       10.4450638476
  N         1.6277813894        4.6624068109       11.0491316243
 Ga         1.6292001744        4.6646723045       13.0448025872
  N         1.6312531818        2.7873433551       13.6464625275
 Ga         1.6546498460        2.7848892913       15.6410853171
  N         1.6293067353        4.6649259270       16.1842526653
 Ga         1.6786254114        4.6401817976       18.1815697073
  N         1.6849394827        2.7775162872       18.6349065266
 Ga         0.0031267013        5.5957808495       -0.5460661913
  N         0.0059631111        7.4707667856        0.6066868706
 Ga         0.0060798528        7.4382896034        2.6368373780
  N         0.0030123954        5.5951899807        3.2695678978
 Ga         0.0046924421        5.5962070711        5.2598080044
  N         0.0074733653        7.4707308701        5.8477438497
 Ga         0.0089326850        7.4693618179        7.8473723809
  N         0.0049624573        5.5956922590        8.4474715121
 Ga         0.0067276364        5.5972416077       10.4447616815
  N         0.0116955908        7.4694150732       11.0449978437
 Ga         0.0151604214        7.4714632578       13.0371054402
  N         0.0057240706        5.6027669683       13.6455461839
 Ga         0.0065735523        5.6014659459       15.6417758630
  N         0.0373077503        7.4660534081       16.2689394154
 Ga         0.0724632899        7.4318946901       18.3566641456
  N         0.1404739068        5.5806701025       18.9030329718
 Ga         6.4873193150       -0.0150112401        0.3233764562
  N         6.4933547194        1.8552431948        0.6060728931
 Ga         6.4660941447        1.8703011023        2.6370697091
  N         6.4880554577       -0.0152151958        3.2289329460
 Ga         6.4897978829       -0.0146100216        5.2408883258
  N         6.4945649522        1.8559331194        5.8479418106
 Ga         6.4944335808        1.8568653109        7.8474962421
  N         6.4910162171       -0.0135251657        8.4515608310
 Ga         6.4945835739       -0.0112804981       10.4481729075
  N         6.4964369424        1.8611463105       11.0529715667
 Ga         6.5008640354        1.8654488460       13.0501654022
  N         6.4899834064       -0.0070088297       13.6381420388
 Ga         6.5090969505       -0.0000482314       15.6389737059
  N         6.5163246892        1.8736537713       16.2289602250
 Ga         6.5723301655        1.8766750332       18.2701728546
  N         6.5610751954       -0.0215111027       18.6562962478
 Ga         4.8675978307        2.7916175488       -0.5407221871
  N         4.8709926296        4.6643843995        0.6069463050
 Ga         4.8708432878        4.6332328993        2.6375464995
  N         4.8683124062        2.7899033005        3.2693092708
 Ga         4.8696074018        2.7911732619        5.2595510015
  N         4.8722547947        4.6651825686        5.8481315421
 Ga         4.8727484425        4.6640312052        7.8478158045
  N         4.8709689059        2.7914533924        8.4504445688
 Ga         4.8737807735        2.7956340111       10.4497009473
  N         4.8796200719        4.6660264334       11.0584516139
 Ga         4.8809693028        4.6697656508       13.0609477775
  N         4.8759831117        2.7957660533       13.6539893908
 Ga         4.8829130739        2.8016608965       15.6676368569
  N         4.8619811320        4.6738817403       16.1683316639
 Ga         4.9321564663        4.6623778107       19.0952166577
  N         4.9399109883        2.7840605682       18.7400686546
 Ga         3.2489113499        5.5950409790        0.3233194810
  N         3.2480354486        7.4655300433        0.6067676532
 Ga         3.2754814248        7.4805720325        2.6380878478
  N         3.2486684731        5.5952811957        3.2291079245
 Ga         3.2500909208        5.5963527682        5.2407833350
  N         3.2504882587        7.4661954957        5.8494236450
 Ga         3.2531346640        7.4666200977        7.8498629883
  N         3.2515168865        5.5960006044        8.4551727188
 Ga         3.2549093098        5.5976574659       10.4543093773
  N         3.2566829350        7.4714421658       11.0507260641
 Ga         3.2573643799        7.4729173648       13.0479443583
  N         3.2491372397        5.5987172475       13.6294961807
 Ga         3.2565442969        5.6059377932       15.6352687384
  N         3.2799922784        7.4864993294       16.1586514835
 Ga         3.3270135244        7.4923307402       18.1719297148
  N         3.3629608665        5.5701182902       18.4642192022
  O         1.5850779599        5.0774759415       21.2359706563
  H         0.9884145337        5.3972130962       20.4794665537
  C         0.8407983324        3.9813421204       21.8846015318
  H         0.1150444614        3.5405519458       21.1847565521
  H         1.5528754560        3.2047220236       22.1901637010
  H         0.3155456887        4.3724941569       22.7685877132
  O         4.2328739373        4.7157092647       21.0725286862
  H         3.2246042787        4.8657616085       21.0762858118
  C         4.5509896095        3.5981546632       21.9420976443
  H         4.1182695750        2.6631789346       21.5602616816
  H         5.6427358864        3.5045588041       21.9648356523
  H         4.1788539117        3.8114028092       22.9521555455
     156
 i =        2, E =     -6136.6591002535
 Ga        -0.0031888242       -0.0158642908       -0.5427585354
  N        -0.0002327626        1.8588538183        0.6074973128
 Ga        -0.0002269200        1.8277299365        2.6379847081
  N        -0.0033134475       -0.0156341533        3.2701345423
 Ga        -0.0021337704       -0.0150223441        5.2603550449
  N         0.0009376999        1.8597910066        5.8485849955
 Ga         0.0025515249        1.8583017852        7.8484662245
  N         0.0010391443       -0.0150806874        8.4497373480
 Ga         0.0042306560       -0.0154968010       10.4485536716
  N         0.0043555242        1.8599391747       11.0451376709
 Ga         0.0109995964        1.8616685882       13.0365767619
  N         0.0167166073       -0.0088178773       13.6392256899
 Ga         0.0334181293       -0.0270105318       15.6324658956
  N         0.0266543551        1.8565179928       16.2180712244
 Ga         0.0476998824        1.8514079040       18.2826791436
  N         0.0426008780       -0.0202766184       18.6892723704
 Ga        -1.6226567153        2.7896365236        0.3242068940
  N        -1.6248399036        4.6596637200        0.6062090011
 Ga        -1.5958314863        4.6756455451        2.6365368276
  N        -1.6229994270        2.7898959928        3.2282667750
 Ga        -1.6217016333        2.7907348304        5.2397461166
  N        -1.6211225208        4.6610151784        5.8467398405
 Ga        -1.6190105747        4.6619447681        7.8454140018
  N        -1.6203627464        2.7920431349        8.4508655897
 Ga        -1.6192450622        2.7955835095       10.4466148828
  N        -1.6176454766        4.6666418939       11.0562257491
 Ga        -1.6189042590        4.6705420162       13.0541573156
  N        -1.6055022286        2.7992048610       13.6637557292
 Ga        -1.6025005520        2.8155607062       15.6687103855
  N        -1.5886948761        4.6808300841       16.3127667951
 Ga        -1.5134060835        4.6824712872       18.3898270962
  N        -1.5526049048        2.7866228540       18.7389850454
 Ga        -3.2436984985        5.5959430176        0.3241673634
  N        -3.2369346910        7.4659393446        0.6077644758
 Ga        -3.2643473741        7.4807949961        2.6381603817
  N        -3.2426817517        5.5950742424        3.2286159948
 Ga        -3.2418253248        5.5960018669        5.2399565130
  N        -3.2356286947        7.4663545808        5.8470483476
 Ga        -3.2355813651        7.4670506137        7.8460698371
  N        -3.2398356433        5.5963663226        8.4500358356
 Ga        -3.2390723753        5.5973105383       10.4457307093
  N        -3.2310402848        7.4661547622       11.0555214325
 Ga        -3.2226255675        7.4623571805       13.0543874529
  N        -3.2368610311        5.5967392492       13.6922161419
 Ga        -3.2243231247        5.5902689672       15.7298695390
  N        -3.2033779665        7.4653783436       16.2766233997
 Ga        -3.1922509185        7.4445007110       18.3326986034
  N        -3.1557439652        5.5853813001       18.8574119061
 Ga         3.2422704769       -0.0156089962        0.3245261022
  N         3.2416730745        1.8549035115        0.6059877760
 Ga         3.2696502833        1.8703978441        2.6371897134
  N         3.2427932475       -0.0153204130        3.2282644310
 Ga         3.2442294021       -0.0145785058        5.2398236378
  N         3.2447196058        1.8555641221        5.8476325541
 Ga         3.2472569221        1.8562752775        7.8468625794
  N         3.2448661428       -0.0145245413        8.4499311831
 Ga         3.2475539439       -0.0139304613       10.4453423896
  N         3.2519634367        1.8570827436       11.0514833260
 Ga         3.2594114009        1.8531462609       13.0485760768
  N         3.2560601347       -0.0166525989       13.6610451254
 Ga         3.2639687457       -0.0186456519       15.6672089414
  N         3.2843755610        1.8503437670       16.2381401873
 Ga         3.3238030951        1.8607206691       18.2643144294
  N         3.2992208075       -0.0232762570       18.7274496176
 Ga         1.6218419998        2.7903528897        0.3241795540
  N         1.6294621711        4.6602956662        0.6065946676
 Ga         1.6014893184        4.6757309766        2.6369302488
  N         1.6229745694        2.7900126732        3.2290177964
 Ga         1.6244247870        2.7910940323        5.2407368344
  N         1.6297673241        4.6612384536        5.8485736958
 Ga         1.6303315640        4.6618756810        7.8484102249
  N         1.6264702582        2.7905425838        8.4496313234
 Ga         1.6297817472        2.7922962943       10.4450180858
  N         1.6277883988        4.6626055461       11.0478709862
 Ga         1.6269503666        4.6655412623       13.0435666324
  N         1.6335285324        2.7883309012       13.6473001392
 Ga         1.6602829595        2.7889088466       15.6408192386
  N         1.6260447107        4.6639674435       16.1776563752
 Ga         1.6785880492        4.6425598981       18.1741803196
  N         1.6855549762        2.7817688008       18.6240018636
 Ga         0.0032416414        5.5957258274       -0.5437087806
  N         0.0060091682        7.4708507748        0.6062773150
 Ga         0.0061477089        7.4385172913        2.6366833598
  N         0.0031159756        5.5951767940        3.2690398030
 Ga         0.0048222170        5.5962931264        5.2594990086
  N         0.0075661191        7.4707034029        5.8481744911
 Ga         0.0088969569        7.4693690861        7.8477394161
  N         0.0051182299        5.5957265000        8.4476041989
 Ga         0.0064876165        5.5970390182       10.4448702368
  N         0.0116732392        7.4695500900       11.0441701684
 Ga         0.0146578613        7.4726480840       13.0362099844
  N         0.0041199718        5.6042037344       13.6445880624
 Ga         0.0070555963        5.5986272115       15.6419230443
  N         0.0399719734        7.4710736747       16.2597561840
 Ga         0.0617007873        7.4360858932       18.3500442503
  N         0.1416997122        5.5848373245       18.9010893264
 Ga         6.4877135126       -0.0151938758        0.3237799659
  N         6.4932556108        1.8553328402        0.6056591861
 Ga         6.4662025068        1.8702055831        2.6369737893
  N         6.4881866814       -0.0152399426        3.2289189715
 Ga         6.4897933914       -0.0146377327        5.2407418036
  N         6.4946667681        1.8559091895        5.8481226681
 Ga         6.4943835035        1.8568667390        7.8475506644
  N         6.4910185444       -0.0134499082        8.4512271676
 Ga         6.4946108301       -0.0106335150       10.4477918127
  N         6.4967009814        1.8618145347       11.0544575137
 Ga         6.5014767010        1.8669452632       13.0521548220
  N         6.4914316793       -0.0059485044       13.6341635941
 Ga         6.5115336021        0.0009977723       15.6336688059
  N         6.5159936017        1.8711370864       16.2346855406
 Ga         6.5706859949        1.8725198938       18.2768793091
  N         6.5571723816       -0.0253911368       18.6639602345
 Ga         4.8676772321        2.7915100621       -0.5381461202
  N         4.8710525986        4.6641565528        0.6065062761
 Ga         4.8708771528        4.6333202610        2.6374512692
  N         4.8683815705        2.7899103119        3.2690599072
 Ga         4.8696927119        2.7912432082        5.2593877782
  N         4.8723420887        4.6652619261        5.8483269221
 Ga         4.8728154517        4.6642695803        7.8479324355
  N         4.8709774769        2.7915847429        8.4503407808
 Ga         4.8739614159        2.7957197487       10.4494161738
  N         4.8791240801        4.6658550897       11.0583695681
 Ga         4.8800633848        4.6700364170       13.0615009388
  N         4.8754107987        2.7965656704       13.6576902712
 Ga         4.8822080009        2.7996640681       15.6737450114
  N         4.8555724165        4.6742803057       16.1580306304
 Ga         4.9378088325        4.6605855926       19.0963664922
  N         4.9420525495        2.7848298891       18.7442629841
 Ga         3.2489646695        5.5954033983        0.3237613500
  N         3.2477040343        7.4652962854        0.6073782645
 Ga         3.2757557396        7.4806381230        2.6378192082
  N         3.2487759752        5.5953143519        3.2291422103
 Ga         3.2501444544        5.5963542634        5.2406776937
  N         3.2504963952        7.4662106684        5.8495924024
 Ga         3.2530950434        7.4665765993        7.8499459341
  N         3.2515404627        5.5960663219        8.4549490024
 Ga         3.2548176748        5.5979508120       10.4541228999
  N         3.2571082653        7.4722307389       11.0491845359
 Ga         3.2585644782        7.4745719778       13.0464444200
  N         3.2468766243        5.6007971985       13.6236280464
 Ga         3.2544151733        5.6077798059       15.6290093608
  N         3.2779736244        7.4851804991       16.1593618015
 Ga         3.3227469682        7.4906208776       18.1722712943
  N         3.3724733508        5.5653254873       18.4501929712
  O         1.5884000157        5.0851781408       21.2367689015
  H         0.9922731978        5.4010853967       20.4777127165
  C         0.8360715278        3.9748227298       21.8894703914
  H         0.1162474836        3.5394866129       21.1815809936
  H         1.5548422219        3.2038160502       22.1897727648
  H         0.3127409344        4.3698807648       22.7704836727
  O         4.2309813468        4.7150562915       21.0728995960
  H         3.2229292820        4.8690922982       21.0751113067
  C         4.5526450505        3.5983266221       21.9420191634
  H         4.1186459940        2.6638820347       21.5603516697
  H         5.6439642054        3.5029683138       21.9662781779
  H         4.1787759146        3.8113787823       22.9514469116
     156
 i =        3, E =     -6136.6593515067
 Ga        -0.0031734857       -0.0159095040       -0.5461959391
  N        -0.0001735940        1.8590064952        0.6077751031
 Ga        -0.0001798889        1.8274856028        2.6378542270
  N        -0.0032300733       -0.0156434458        3.2705437299
 Ga        -0.0020024347       -0.0149459794        5.2605729865
  N         0.0010216569        1.8598928169        5.8483612741
 Ga         0.0026761243        1.8585929630        7.8480149082
  N         0.0012994618       -0.0146439072        8.4496485312
 Ga         0.0047894048       -0.0145237459       10.4482592233
  N         0.0045434900        1.8598755292       11.0486576618
 Ga         0.0119141301        1.8607035782       13.0413992675
  N         0.0178997450       -0.0103799387       13.6429381821
 Ga         0.0351997347       -0.0309683610       15.6367862551
  N         0.0306812443        1.8553289241       16.2162446942
 Ga         0.0488781441        1.8542770950       18.2778243900
  N         0.0387336670       -0.0167778034       18.6830285627
 Ga        -1.6223167789        2.7896792850        0.3241366826
  N        -1.6245379409        4.6597879227        0.6063532057
 Ga        -1.5958368458        4.6755553279        2.6368706254
  N        -1.6228300088        2.7898408137        3.2284183281
 Ga        -1.6215474647        2.7908156087        5.2399227643
  N        -1.6210859086        4.6610984741        5.8466605627
 Ga        -1.6190271403        4.6618771104        7.8453731951
  N        -1.6200824015        2.7920232509        8.4517990493
 Ga        -1.6186244889        2.7953636168       10.4475788296
  N        -1.6179183675        4.6661801742       11.0568350119
 Ga        -1.6197075987        4.6696994509       13.0548973609
  N        -1.6045840855        2.7990455238       13.6679268997
 Ga        -1.6021616771        2.8136414246       15.6732480885
  N        -1.5899303407        4.6774437823       16.3138003804
 Ga        -1.5136366849        4.6852772919       18.3924888469
  N        -1.5510724822        2.7868766445       18.7263543317
 Ga        -3.2434329695        5.5961613452        0.3240570633
  N        -3.2367014503        7.4658403361        0.6080353843
 Ga        -3.2644760164        7.4809063068        2.6380061279
  N        -3.2425855729        5.5951735416        3.2286384767
 Ga        -3.2417146067        5.5960788355        5.2399983843
  N        -3.2355133453        7.4663374013        5.8469486338
 Ga        -3.2355269543        7.4670374933        7.8458883612
  N        -3.2396471295        5.5964844661        8.4505569582
 Ga        -3.2391288554        5.5971284080       10.4465518079
  N        -3.2313821793        7.4662132884       11.0552986114
 Ga        -3.2227802712        7.4619446833       13.0541131289
  N        -3.2376553617        5.5963550204       13.6913215317
 Ga        -3.2240927922        5.5888355583       15.7292792776
  N        -3.2013055074        7.4595584835       16.2801000215
 Ga        -3.1968741917        7.4421147487       18.3365800758
  N        -3.1529128071        5.5856558402       18.8672205209
 Ga         3.2422499991       -0.0159009813        0.3244362296
  N         3.2417627098        1.8548977014        0.6058991883
 Ga         3.2696390108        1.8703213702        2.6375541621
  N         3.2428001326       -0.0154004005        3.2283421736
 Ga         3.2442502254       -0.0145697876        5.2399287470
  N         3.2448317961        1.8556029748        5.8474993055
 Ga         3.2472910400        1.8564789130        7.8467649769
  N         3.2447858938       -0.0143618581        8.4500316407
 Ga         3.2472434762       -0.0137217309       10.4455137292
  N         3.2524746102        1.8571413123       11.0516652741
 Ga         3.2600217299        1.8534602649       13.0486259662
  N         3.2545984340       -0.0158740999       13.6610513682
 Ga         3.2610281488       -0.0183590639       15.6675883064
  N         3.2848346130        1.8482389865       16.2428761070
 Ga         3.3250580341        1.8616177175       18.2707081646
  N         3.2958097299       -0.0226451088       18.7377188356
 Ga         1.6216194049        2.7903920346        0.3241000082
  N         1.6292897453        4.6604073255        0.6067897257
 Ga         1.6016344430        4.6756597122        2.6373088427
  N         1.6229662225        2.7899266394        3.2291043063
 Ga         1.6244628793        2.7911093043        5.2408633578
  N         1.6298279406        4.6612794338        5.8484670870
 Ga         1.6303483177        4.6618357910        7.8484705368
  N         1.6264524892        2.7904466735        8.4503787159
 Ga         1.6296485965        2.7919232004       10.4459962736
  N         1.6273794173        4.6626762290       11.0461306795
 Ga         1.6253516866        4.6660756223       13.0414039448
  N         1.6351818665        2.7895099178       13.6470417634
 Ga         1.6631048157        2.7891809337       15.6400462695
  N         1.6234632243        4.6639799676       16.1715230775
 Ga         1.6793505105        4.6452370736       18.1675031799
  N         1.6850773952        2.7857503542       18.6170825760
 Ga         0.0033179144        5.5957002275       -0.5433673190
  N         0.0060726934        7.4705631745        0.6064226662
 Ga         0.0062206894        7.4386030732        2.6369889356
  N         0.0031646643        5.5951951752        3.2690000620
 Ga         0.0048694451        5.5963049963        5.2595615282
  N         0.0076241117        7.4707382891        5.8480970515
 Ga         0.0089673684        7.4694722119        7.8478082430
  N         0.0049838529        5.5957389288        8.4477908110
 Ga         0.0058809317        5.5970933854       10.4452251773
  N         0.0115388698        7.4699379951       11.0440696535
 Ga         0.0138067661        7.4733408114       13.0363662192
  N         0.0028505595        5.6045475228       13.6432021646
 Ga         0.0056777385        5.5978337919       15.6407956276
  N         0.0401264292        7.4736763172       16.2575496073
 Ga         0.0550783805        7.4391447624       18.3471077059
  N         0.1442019981        5.5869166181       18.8981272870
 Ga         6.4878651939       -0.0154900392        0.3237047934
  N         6.4932826479        1.8553194740        0.6055837255
 Ga         6.4663944195        1.8701580917        2.6373548671
  N         6.4883040439       -0.0152942990        3.2290334085
 Ga         6.4899118891       -0.0146066328        5.2409017735
  N         6.4947799652        1.8559823030        5.8478925916
 Ga         6.4946340255        1.8571566704        7.8472832829
  N         6.4910724043       -0.0130485028        8.4515883265
 Ga         6.4947845014       -0.0097217898       10.4484480580
  N         6.4968434478        1.8628767815       11.0552139603
 Ga         6.5022431270        1.8686052952       13.0530733842
  N         6.4920787490       -0.0045123934       13.6318312085
 Ga         6.5106743797        0.0019956226       15.6306689360
  N         6.5167323938        1.8695887736       16.2384701961
 Ga         6.5697070654        1.8691873434       18.2820738370
  N         6.5554508840       -0.0289303287       18.6692136937
 Ga         4.8677519804        2.7914484565       -0.5365844491
  N         4.8711181065        4.6641143666        0.6063889805
 Ga         4.8709793199        4.6333987762        2.6377946160
  N         4.8684583692        2.7898928951        3.2691029649
 Ga         4.8698021216        2.7913264828        5.2595770105
  N         4.8725177447        4.6653362430        5.8482708127
 Ga         4.8729835554        4.6643784443        7.8479973087
  N         4.8711658594        2.7915616939        8.4505679658
 Ga         4.8741169855        2.7959598049       10.4496845436
  N         4.8787841915        4.6658269095       11.0582945027
 Ga         4.8794878001        4.6690868180       13.0619137531
  N         4.8754215006        2.7961669568       13.6602227232
 Ga         4.8819920952        2.7966295480       15.6780221287
  N         4.8513586128        4.6747949017       16.1496188322
 Ga         4.9421109572        4.6573016704       19.0972093818
  N         4.9440779397        2.7815718242       18.7526156877
 Ga         3.2488258760        5.5956039068        0.3236701417
  N         3.2475842526        7.4651692238        0.6077208284
 Ga         3.2760187031        7.4807578947        2.6377148804
  N         3.2488715200        5.5953978011        3.2292286479
 Ga         3.2502591351        5.5964268476        5.2408483716
  N         3.2505990976        7.4662868310        5.8494639614
 Ga         3.2532191779        7.4667951233        7.8498599672
  N         3.2515893321        5.5962269769        8.4547878435
 Ga         3.2547729672        5.5981318461       10.4542145542
  N         3.2579296242        7.4729999764       11.0473965638
 Ga         3.2589643891        7.4766141057       13.0442521983
  N         3.2451361926        5.6027365117       13.6178605114
 Ga         3.2530963093        5.6093565067       15.6228259080
  N         3.2753288575        7.4848321449       16.1589276061
 Ga         3.3196230418        7.4890438488       18.1719978099
  N         3.3812122759        5.5612185373       18.4364953743
  O         1.5914363936        5.0892147671       21.2392684864
  H         0.9953113111        5.4024066565       20.4786942063
  C         0.8363575095        3.9747337963       21.8883931932