     156
 i =        1, E =     -6136.6208755969
 Ga        -0.0031982065       -0.0158235008       -0.5370745015
  N        -0.0002750220        1.8585039101        0.6068330176
 Ga        -0.0003347221        1.8279999193        2.6382457750
  N        -0.0033829758       -0.0156174236        3.2696925843
 Ga        -0.0021676365       -0.0150502641        5.2604484720
  N         0.0008186189        1.8596621482        5.8483615601
 Ga         0.0023094757        1.8581362729        7.8482683411
  N         0.0008339852       -0.0150128985        8.4503957499
 Ga         0.0038468859       -0.0157089312       10.4496485842
  N         0.0043381378        1.8600106061       11.0421601636
 Ga         0.0100992788        1.8619804359       13.0327689406
  N         0.0155855421       -0.0090020502       13.6322840619
 Ga         0.0308864517       -0.0174275276       15.6236550103
  N         0.0199406550        1.8569150312       16.2193051953
 Ga         0.0460856773        1.8465213781       18.2867473194
  N         0.0486144864       -0.0286716076       18.7030060839
 Ga        -1.6230716952        2.7899086626        0.3239764940
  N        -1.6248039952        4.6597432411        0.6066313840
 Ga        -1.5956830828        4.6757365240        2.6366663694
  N        -1.6230871248        2.7899791203        3.2283391969
 Ga        -1.6217588796        2.7906195662        5.2399308590
  N        -1.6212790599        4.6608965215        5.8465573010
 Ga        -1.6191055246        4.6615406131        7.8452325100
  N        -1.6203502795        2.7918380970        8.4509161556
 Ga        -1.6192673675        2.7954021044       10.4469795474
  N        -1.6174448674        4.6669448284       11.0554842542
 Ga        -1.6181171765        4.6720031136       13.0530295990
  N        -1.6070368747        2.8001509548       13.6570680200
 Ga        -1.5997722124        2.8162697427       15.6619844488
  N        -1.5866132544        4.6845779236       16.3086201566
 Ga        -1.5122222483        4.6772728500       18.3865883627
  N        -1.4602437556        2.8253118835       19.0172612122
 Ga        -3.2437208473        5.5955243844        0.3238957741
  N        -3.2373564492        7.4661364967        0.6070862817
 Ga        -3.2642110182        7.4807261564        2.6383815146
  N        -3.2426852489        5.5950675656        3.2286772241
 Ga        -3.2419127315        5.5960209816        5.2401724984
  N        -3.2357909076        7.4663025101        5.8470609231
 Ga        -3.2358819906        7.4670930973        7.8461713099
  N        -3.2398756754        5.5961911912        8.4492875967
 Ga        -3.2389005992        5.5973572403       10.4447926852
  N        -3.2308336756        7.4658390237       11.0561504583
 Ga        -3.2219257446        7.4630472251       13.0547777481
  N        -3.2353016120        5.5977547414       13.6932598614
 Ga        -3.2232692959        5.5929203003       15.7295469454
  N        -3.2091974603        7.4750063235       16.2678598595
 Ga        -3.1854391058        7.4486125886       18.3241750508
  N        -3.1586599300        5.5871487974       18.8532733422
 Ga         3.2425838813       -0.0154408230        0.3242786284
  N         3.2414176393        1.8547819899        0.6063054024
 Ga         3.2696535984        1.8704509762        2.6371634787
  N         3.2427866393       -0.0153172447        3.2283397996
 Ga         3.2440005945       -0.0146087265        5.2400498998
  N         3.2446520295        1.8555350520        5.8475557918
 Ga         3.2470751358        1.8562779464        7.8469175097
  N         3.2448885445       -0.0146705393        8.4496400749
 Ga         3.2476822716       -0.0141449397       10.4452290062
  N         3.2514934442        1.8568603230       11.0515255529
 Ga         3.2577753404        1.8535982800       13.0488841408
  N         3.2574969168       -0.0168136354       13.6602446545
 Ga         3.2695219308       -0.0191542472       15.6652672519
  N         3.2824605387        1.8546678039       16.2275945810
 Ga         3.3207713951        1.8610685288       18.2532104732
  N         3.3069527298       -0.0263299149       18.7123815924
 Ga         1.6221499582        2.7906124652        0.3238783890
  N         1.6293270661        4.6603741366        0.6069489903
 Ga         1.6011531474        4.6758790051        2.6370268002
  N         1.6229103308        2.7900938670        3.2290772159
 Ga         1.6242899311        2.7909496553        5.2409785666
  N         1.6297260824        4.6611488280        5.8484802809
 Ga         1.6302140782        4.6615976639        7.8483691633
  N         1.6260978727        2.7902972700        8.4494115224
 Ga         1.6296229582        2.7921163264       10.4449096905
  N         1.6277415386        4.6623874260       11.0495264707
 Ga         1.6291153471        4.6645193070       13.0450342472
  N         1.6313792124        2.7876155048       13.6465083446
 Ga         1.6537156324        2.7850999197       15.6404139877
  N         1.6297675422        4.6650534358       16.1825451272
 Ga         1.6772728286        4.6403917818       18.1795634605
  N         1.6853798830        2.7786663545       18.6395500079
 Ga         0.0031229935        5.5957778607       -0.5460682553
  N         0.0059608620        7.4707629568        0.6066172946
 Ga         0.0060764497        7.4382820414        2.6367490127
  N         0.0030109260        5.5951898311        3.2695968829
 Ga         0.0046923050        5.5962052798        5.2598601141
  N         0.0074694992        7.4707239371        5.8478214090
 Ga         0.0088995245        7.4693403029        7.8473769430
  N         0.0049678931        5.5956952972        8.4472715767
 Ga         0.0067628153        5.5972145739       10.4445686770
  N         0.0116155118        7.4693514897       11.0453982064
 Ga         0.0144893757        7.4711273714       13.0375424129
  N         0.0060217562        5.6026065733       13.6458833157
 Ga         0.0070726862        5.6014716008       15.6412758339
  N         0.0359021154        7.4650478179       16.2683068427
 Ga         0.0754420477        7.4320388738       18.3562005620
  N         0.1415054306        5.5800790014       18.9076734694
 Ga         6.4872831329       -0.0150074840        0.3234940928
  N         6.4933968743        1.8552196829        0.6059750613
 Ga         6.4660920978        1.8702994907        2.6369613353
  N         6.4880724217       -0.0152340188        3.2289488511
 Ga         6.4897915719       -0.0146235332        5.2409386408
  N         6.4945600472        1.8559248301        5.8480028451
 Ga         6.4944499879        1.8568660505        7.8475053674
  N         6.4910066261       -0.0135591662        8.4512768391
 Ga         6.4945393407       -0.0114566552       10.4479202185
  N         6.4964875336        1.8611155357       11.0528377311
 Ga         6.5008503835        1.8654672554       13.0502096684
  N         6.4899339195       -0.0075899183       13.6374629558
 Ga         6.5086149448       -0.0009546680       15.6390394154
  N         6.5173643199        1.8741349349       16.2380244929
 Ga         6.6575992174        1.9243513269       18.3008710611
  N         6.5609370940       -0.0026014717       18.6534832773
 Ga         4.8675935667        2.7916161834       -0.5406735297
  N         4.8709897398        4.6644381404        0.6068499259
 Ga         4.8708386561        4.6332370781        2.6374384221
  N         4.8683089717        2.7899060457        3.2693253687
 Ga         4.8695978314        2.7911677898        5.2596014160
  N         4.8722436238        4.6651866471        5.8481992676
 Ga         4.8727540207        4.6640499366        7.8478265618
  N         4.8709467643        2.7914491589        8.4501783379
 Ga         4.8736333805        2.7956487455       10.4495108075
  N         4.8796386629        4.6661267611       11.0586689004
 Ga         4.8811950635        4.6704349541       13.0612480061
  N         4.8754443215        2.7959024796       13.6528965818
 Ga         4.8824714890        2.8023856394       15.6671209858
  N         4.8623175435        4.6749890050       16.1689883699
 Ga         4.9318598301        4.6591884658       19.0957240813
  N         4.9571169836        2.7738881247       18.7365752791
 Ga         3.2488898959        5.5950124820        0.3234390277
  N         3.2480138299        7.4655208330        0.6065922818
 Ga         3.2755049464        7.4805881846        2.6379534558
  N         3.2486588070        5.5953077895        3.2291246937
 Ga         3.2500735060        5.5963549089        5.2408319690
  N         3.2504885927        7.4661930392        5.8494951442
 Ga         3.2531610252        7.4666213916        7.8498642093
  N         3.2514919775        5.5959972552        8.4549510186
 Ga         3.2548152969        5.5976159843       10.4541031603
  N         3.2567549275        7.4714110183       11.0510659736
 Ga         3.2579997364        7.4725614425       13.0482993530
  N         3.2488633030        5.5983757890       13.6299486941
 Ga         3.2566359861        5.6055208265       15.6351478319
  N         3.2810543104        7.4860968154       16.1567314052
 Ga         3.3246689149        7.4946582145       18.1711267120
  N         3.3617559572        5.5705010350       18.4643610016
  O         1.5520892253        5.0337687169       21.2573431498
  H         0.9933252191        5.3926196161       20.4877452754
  C         0.7578363366        3.9378588666       21.7916672831
  H         0.0287627134        3.5221631191       21.0006927383
  H         1.5315940504        3.2350770222       22.1794603497
  H         0.3373303085        4.3621967520       22.7373864851
  O         4.2312460338        4.7167549054       21.0755918911
  H         3.2212772092        4.8665624230       21.0762614772
  C         4.5515048778        3.5971919299       21.9426244088
  H         4.1179903263        2.6626428310       21.5600158572
  H         5.6435852984        3.5044184261       21.9648982839
  H         4.1786376620        3.8118144336       22.9522543722
     156
 i =        2, E =     -6136.6587626228
 Ga        -0.0031961811       -0.0158447981       -0.5386959787
  N        -0.0002616643        1.8585361910        0.6071822040
 Ga        -0.0003098494        1.8279623876        2.6383125895
  N        -0.0033645382       -0.0156134815        3.2698173394
 Ga        -0.0021512727       -0.0150500291        5.2603898086
  N         0.0008476942        1.8597013990        5.8483638173
 Ga         0.0023143190        1.8582033447        7.8483142238
  N         0.0008892897       -0.0150366520        8.4505825749
 Ga         0.0038575151       -0.0156132369       10.4498281300
  N         0.0042760461        1.8600685469       11.0425522942
 Ga         0.0100724642        1.8620353779       13.0332644511
  N         0.0156714932       -0.0088754727       13.6329638793
 Ga         0.0306966742       -0.0184749748       15.6253049678
  N         0.0203711451        1.8574272411       16.2259150805
 Ga         0.0447674219        1.8520250179       18.2945300336
  N         0.0468523631       -0.0256938800       18.6944985684
 Ga        -1.6229334236        2.7898457945        0.3237437942
  N        -1.6248370170        4.6597097246        0.6066776127
 Ga        -1.5957340328        4.6757010376        2.6367441998
  N        -1.6230904999        2.7899214551        3.2283362801
 Ga        -1.6217686053        2.7906346373        5.2398410587
  N        -1.6212584924        4.6609053830        5.8465063357
 Ga        -1.6191030347        4.6616079001        7.8452136153
  N        -1.6203904554        2.7919082274        8.4513391947
 Ga        -1.6193669568        2.7954356898       10.4473494815
  N        -1.6175575682        4.6668885731       11.0554560966
 Ga        -1.6180184627        4.6712033926       13.0529191058
  N        -1.6072689796        2.7995455021       13.6572158940
 Ga        -1.5987498885        2.8168647775       15.6604337173
  N        -1.5872913930        4.6818082257       16.3138112646
 Ga        -1.5109934462        4.6741155077       18.3911563545
  N        -1.5180066393        2.7996642038       18.8806708908
 Ga        -3.2436940997        5.5956588055        0.3236780646
  N        -3.2373004652        7.4661165429        0.6074536968
 Ga        -3.2642176361        7.4807274747        2.6384767390
  N        -3.2427244250        5.5950545454        3.2286897782
 Ga        -3.2419123712        5.5960134479        5.2400974949
  N        -3.2357443209        7.4663192728        5.8469764318
 Ga        -3.2358030017        7.4670504948        7.8460883180
  N        -3.2398721461        5.5962048274        8.4496314620
 Ga        -3.2388981706        5.5972172204       10.4450763323
  N        -3.2308668267        7.4657389772       11.0555969590
 Ga        -3.2220336763        7.4630318105       13.0543886140
  N        -3.2358932409        5.5968734085       13.6917134494
 Ga        -3.2220413433        5.5918748692       15.7289831674
  N        -3.2081571973        7.4730941013       16.2714976895
 Ga        -3.1861955567        7.4469366862       18.3280780571
  N        -3.1583015691        5.5840757489       18.8489891065
 Ga         3.2424927963       -0.0155201564        0.3240597807
  N         3.2415003465        1.8548236109        0.6063096115
 Ga         3.2696754685        1.8704470759        2.6372652032
  N         3.2427801384       -0.0152710273        3.2283322495
 Ga         3.2440416372       -0.0145808047        5.2399446495
  N         3.2446781367        1.8555499905        5.8474880738
 Ga         3.2471946842        1.8563053812        7.8468287541
  N         3.2448764629       -0.0146116477        8.4499959288
 Ga         3.2477363679       -0.0141070206       10.4456129601
  N         3.2518496997        1.8570460653       11.0512919253
 Ga         3.2587606875        1.8538344124       13.0486067744
  N         3.2573610446       -0.0165131394       13.6599919196
 Ga         3.2691297592       -0.0194235118       15.6661375861
  N         3.2826955123        1.8540102122       16.2319671470
 Ga         3.3270944303        1.8591195912       18.2569122333
  N         3.3045281446       -0.0249075937       18.7165035824
 Ga         1.6220393851        2.7905555963        0.3236692978
  N         1.6293875331        4.6603411005        0.6070090928
 Ga         1.6012516529        4.6758332362        2.6371051325
  N         1.6229569173        2.7900374630        3.2290710906
 Ga         1.6243406368        2.7909618980        5.2408663720
  N         1.6297649425        4.6611572252        5.8483881493
 Ga         1.6302660861        4.6616988348        7.8483159044
  N         1.6262208596        2.7903553435        8.4497806643
 Ga         1.6296399227        2.7921293840       10.4453288795
  N         1.6276988458        4.6625383571       11.0488656994
 Ga         1.6289545561        4.6648438744       13.0446053663
  N         1.6320489630        2.7875756146       13.6459355860
 Ga         1.6537980501        2.7856781944       15.6403525756
  N         1.6281668338        4.6644763979       16.1838763250
 Ga         1.6784860516        4.6416867082       18.1811689848
  N         1.6905267414        2.7786101510       18.6292207441
 Ga         0.0031552821        5.5957726304       -0.5459038314
  N         0.0059733970        7.4708076565        0.6066866649
 Ga         0.0060979151        7.4383595751        2.6368435413
  N         0.0030405387        5.5951833917        3.2695048807
 Ga         0.0047121113        5.5962274903        5.2597553170
  N         0.0074842457        7.4707453707        5.8478004399
 Ga         0.0089347994        7.4693662510        7.8474134292
  N         0.0049817546        5.5956862626        8.4475767242
 Ga         0.0065574684        5.5972022060       10.4449004188
  N         0.0117676957        7.4694044128       11.0449335061
 Ga         0.0151064697        7.4717733662       13.0372092998
  N         0.0053642445        5.6029177915       13.6446411346
 Ga         0.0057069212        5.6005470550       15.6412595518
  N         0.0386555035        7.4659757664       16.2678508515
 Ga         0.0724606052        7.4374300105       18.3554533535
  N         0.1413039332        5.5853972048       18.9007923018
 Ga         6.4874033711       -0.0150909097        0.3232850553
  N         6.4933395478        1.8552583279        0.6059798697
 Ga         6.4661030432        1.8702877545        2.6370623302
  N         6.4881156868       -0.0151882212        3.2289727414
 Ga         6.4898055842       -0.0145907791        5.2408772548
  N         6.4945870628        1.8559429712        5.8479843063
 Ga         6.4944268191        1.8568875756        7.8474851799
  N         6.4910218361       -0.0134894949        8.4515234658
 Ga         6.4945305600       -0.0111022445       10.4481211641
  N         6.4964525438        1.8612981819       11.0529064018
 Ga         6.5009802116        1.8655421100       13.0498975236
  N         6.4902646025       -0.0063177197       13.6383803896
 Ga         6.5093397024        0.0021701534       15.6400570927
  N         6.5215858081        1.8759477958       16.2396841408
 Ga         6.6066919358        1.8954141321       18.2903979075
  N         6.5630928933       -0.0140185002       18.6573149039
 Ga         4.8676130488        2.7915918802       -0.5398102255
  N         4.8710082010        4.6643413709        0.6068535788
 Ga         4.8708515400        4.6332346354        2.6375464815
  N         4.8683265618        2.7899026848        3.2692954358
 Ga         4.8696358484        2.7911919824        5.2595391767
  N         4.8722697567        4.6651945773        5.8481560214
 Ga         4.8727872068        4.6640655888        7.8477791032
  N         4.8709797248        2.7914985208        8.4504164730
 Ga         4.8739074745        2.7956426644       10.4495187281
  N         4.8796759531        4.6658889142       11.0582512621
 Ga         4.8803444819        4.6698793946       13.0607605543
  N         4.8764154582        2.7959677337       13.6563178081
 Ga         4.8851645686        2.7999599142       15.6718497994
  N         4.8615636735        4.6741940404       16.1654834870
 Ga         4.9331921173        4.6616562999       19.0981924359
  N         4.9495827073        2.7840974094       18.7387277106
 Ga         3.2488906010        5.5951371593        0.3232378828
  N         3.2479849161        7.4654916021        0.6069854438
 Ga         3.2755424875        7.4805854688        2.6380687805
  N         3.2487274823        5.5952924534        3.2291377760
 Ga         3.2501350027        5.5963527126        5.2407456347
  N         3.2504993022        7.4661903199        5.8494373234
 Ga         3.2531120296        7.4666058130        7.8498387759
  N         3.2515606317        5.5959963382        8.4553084634
 Ga         3.2549265078        5.5977333912       10.4545648611
  N         3.2566485121        7.4716865086       11.0504409728
 Ga         3.2576453482        7.4732253224       13.0478246799
  N         3.2487749002        5.5991871949       13.6287033743
 Ga         3.2554873824        5.6068390625       15.6345768483
  N         3.2798892443        7.4868824095       16.1578204849
 Ga         3.3251701603        7.4918787285       18.1704929670
  N         3.3653188078        5.5691449670       18.4632158429
  O         1.5715201721        5.0555801876       21.2312858582
  H         0.9877874115        5.4015658075       20.4790516537
  C         0.8261763602        3.9801994836       21.8458883158
  H         0.0953747293        3.5420746906       21.1185782801
  H         1.5247087679        3.1960827465       22.1657120417
  H         0.2944750163        4.3531165754       22.7357833207
  O         4.2287355607        4.7163267612       21.0728059702
  H         3.2200921131        4.8637081907       21.0784186455
  C         4.5508134475        3.5990152229       21.9416940472
  H         4.1182998429        2.6637252774       21.5605049827
  H         5.6425003552        3.5044577034       21.9649164746
  H         4.1788270644        3.8110064668       22.9519628543
     156
 i =        3, E =     -6136.6594642588
 Ga        -0.0031923637       -0.0158567939       -0.5411214662
  N        -0.0002335309        1.8585964987        0.6072426681
 Ga        -0.0002554836        1.8277229803        2.6379795786
  N        -0.0033258561       -0.0156314308        3.2701091768
 Ga        -0.0021082480       -0.0150026728        5.2604921235
  N         0.0009069096        1.8597928386        5.8485890531
 Ga         0.0024649901        1.8583239811        7.8485302466
  N         0.0010048128       -0.0149698941        8.4501041368
 Ga         0.0040933048       -0.0153692215       10.4491281924
  N         0.0043760066        1.8600080965       11.0442538656
 Ga         0.0112520377        1.8616555965       13.0353690562
  N         0.0167501627       -0.0087984269       13.6371160707
 Ga         0.0314804483       -0.0213391987       15.6304465828
  N         0.0214637380        1.8585924479       16.2285589074
 Ga         0.0463725418        1.8559954604       18.2974806512
  N         0.0451795987       -0.0234995694       18.6873168856
 Ga        -1.6225715993        2.7898183684        0.3239649141
  N        -1.6248564135        4.6596600625        0.6064897498
 Ga        -1.5958233388        4.6756293609        2.6366437513
  N        -1.6230291910        2.7898004501        3.2282875589
 Ga        -1.6217206075        2.7906897778        5.2398906220
  N        -1.6211700288        4.6609667792        5.8467049598
 Ga        -1.6190478433        4.6617507477        7.8454671880
  N        -1.6203078608        2.7919887980        8.4512159213
 Ga        -1.6191376807        2.7954455646       10.4470511476
  N        -1.6176314223        4.6666317487       11.0555351230
 Ga        -1.6184803239        4.6708530057       13.0529488488
  N        -1.6062663704        2.7991190476       13.6597049974
 Ga        -1.5994551711        2.8165695817       15.6617822807
  N        -1.5880609751        4.6782366776       16.3161234739
 Ga        -1.5092834787        4.6739458102       18.3944435643
  N        -1.5209580397        2.7975367301       18.8694599734
 Ga        -3.2434965772        5.5959383465        0.3239164860
  N        -3.2371683678        7.4660700379        0.6075132151
 Ga        -3.2643704622        7.4808176179        2.6381528869
  N        -3.2427728835        5.5951133139        3.2286080316
 Ga        -3.2418395552        5.5960222196        5.2400931218
  N        -3.2356550714        7.4663420163        5.8471238961
 Ga        -3.2356542363        7.4670792866        7.8462644634
  N        -3.2398017101        5.5963077755        8.4498940221
 Ga        -3.2390510524        5.5971850891       10.4455420956
  N        -3.2310204673        7.4659713638       11.0550639159
 Ga        -3.2223754406        7.4628328478       13.0537948422
  N        -3.2362260321        5.5969188389       13.6920784346
 Ga        -3.2217648001        5.5901123228       15.7301653853
  N        -3.2058803684        7.4689445543       16.2740160493
 Ga        -3.1869995531        7.4455117009       18.3301561548
  N        -3.1564743350        5.5833249097       18.8512810915
 Ga         3.2423744707       -0.0157878790        0.3242839041
  N         3.2415666036        1.8548415861        0.6057132371
 Ga         3.2696893214        1.8704234691        2.6371422205
  N         3.2427162889       -0.0152506853        3.2282551238
 Ga         3.2441499549       -0.0145622090        5.2399491120
  N         3.2447355633        1.8555748682        5.8476558346
 Ga         3.2472103506        1.8563192703        7.8470104434
  N         3.2448932086       -0.0145210492        8.4500289586
 Ga         3.2476752253       -0.0139090434       10.4456204576
  N         3.2521023359        1.8572126209       11.0516466364
 Ga         3.2595904315        1.8536168008       13.0489541355
  N         3.2561328996       -0.0163854015       13.6607599563
 Ga         3.2670046635       -0.0194363518       15.6673874263
  N         3.2843599341        1.8521753297       16.2357268100
 Ga         3.3322290432        1.8582055280       18.2614079195
  N         3.3019160195       -0.0231370260       18.7289654930
 Ga         1.6217444404        2.7905333809        0.3239204440
  N         1.6294692202        4.6602900999        0.6068521603
 Ga         1.6014425220        4.6757407423        2.6370187039
  N         1.6229834490        2.7899189161        3.2290198935
 Ga         1.6244062656        2.7910200205        5.2408900991
  N         1.6297859743        4.6612057502        5.8485848955
 Ga         1.6303014448        4.6617714719        7.8485781644
  N         1.6263545106        2.7904465282        8.4498513893
 Ga         1.6297313886        2.7921307084       10.4453647928
  N         1.6276763422        4.6625953374       11.0477632062
 Ga         1.6275751612        4.6651465507       13.0433680918
  N         1.6334088189        2.7881889228       13.6475411857
 Ga         1.6557504306        2.7863808971       15.6421503038
  N         1.6264200135        4.6640897482       16.1802878537
 Ga         1.6796053809        4.6439979215       18.1775893169
  N         1.6942973292        2.7811493148       18.6207158654
 Ga         0.0032192266        5.5957557583       -0.5455725534
  N         0.0060059136        7.4708627302        0.6065519336
 Ga         0.0061452965        7.4385079779        2.6367888299
  N         0.0030937400        5.5951784691        3.2692435417
 Ga         0.0047811333        5.5962800080        5.2596864261
  N         0.0075411813        7.4707449523        5.8480557683
 Ga         0.0088972022        7.4693888821        7.8477274661
  N         0.0050270302        5.5957286091        8.4475896111
 Ga         0.0064161105        5.5971922442       10.4449731280
  N         0.0117848533        7.4695837315       11.0448954904
 Ga         0.0150375523        7.4725770985       13.0375732845
  N         0.0042188416        5.6032317218       13.6446600396
 Ga         0.0048235122        5.6000935446       15.6423819887
  N         0.0407262515        7.4691263403       16.2642261433
 Ga         0.0671652116        7.4419553057       18.3511491395
  N         0.1432798146        5.5896670867       18.8979213367
 Ga         6.4875969031       -0.0153671101        0.3235333865
  N         6.4933395919        1.8552728551        0.6053782623
 Ga         6.4661655935        1.8702451449        2.6369232379
  N         6.4882553881       -0.0151603152        3.2289203844
 Ga         6.4898142441       -0.0145873277        5.2408902784
  N         6.4946488331        1.8559469756        5.8481246748
 Ga         6.4944917419        1.8569630149        7.8476309519
  N         6.4910073790       -0.0133915794        8.4512829964
 Ga         6.4945826116       -0.0107027383       10.4479235760
  N         6.4966318161        1.8617669354       11.0535279770
 Ga         6.5010677094        1.8664974271       13.0505961283
  N         6.4911243242       -0.0048881173       13.6377665546
 Ga         6.5105991145        0.0041914273       15.6394378308
  N         6.5252926773        1.8758110362       16.2482041421
 Ga         6.6049591893        1.8917130571       18.2989437722
  N         6.5618064128       -0.0167676263       18.6614062432
 Ga         4.8676558052        2.7915238068       -0.5366618238
  N         4.8710486866        4.6642816319        0.6062379080
 Ga         4.8708861753        4.6332611799        2.6374069584
  N         4.8683759585        2.7899016794        3.2690744872
 Ga         4.8696973513        2.7912174309        5.2595431004
  N         4.8723361762        4.6652322766        5.8483237656
 Ga         4.8728472191        4.6641857986        7.8480383266
  N         4.8710170889        2.7915184227        8.4502584349
 Ga         4.8739897776        2.7957014048       10.4492754026
  N         4.8792998809        4.6657233091       11.0584777358
 Ga         4.8801260899        4.6694859783       13.0616105605
  N         4.8765029307        2.7959395616       13.6603224652
 Ga         4.8880497844        2.7977635137       15.6777052465
  N         4.8581485049        4.6741272217       16.1598506771
 Ga         4.9360674285        4.6610823230       19.1000049804
  N         4.9521846360        2.7857890938       18.7411651540
 Ga         3.2487588543        5.5953979095        0.3235043402
  N         3.2479223693        7.4654259973        0.6071002151
 Ga         3.2757612047        7.4806734167        2.6377836042
  N         3.2488583953        5.5953523954        3.2290944253
 Ga         3.2501649222        5.5963653333        5.2407796360
  N         3.2505143230        7.4662152526        5.8495964222
 Ga         3.2531412039        7.4666512522        7.8500509541
  N         3.2515678104        5.5960808840        8.4550711367
 Ga         3.2548909161        5.5979717361       10.4544094927
  N         3.2569401255        7.4722290387       11.0498241018
 Ga         3.2581784268        7.4744949143       13.0474662257
  N         3.2474255318        5.6000939569       13.6251692900
 Ga         3.2543141392        5.6084211821       15.6308737158
  N         3.2787608686        7.4863211294       16.1570093799
 Ga         3.3228460624        7.4921286059       18.1685767612
  N         3.3714523691        5.5676142221       18.4547588407
  O         1.5700603668        5.0542276473       21.2355301182
  H         0.9908948650        5.4032526908       20.4795001714
  C         0.8189468827        3.9757407137       21.8363344066