 DBCSR| Multiplication driver                                               BLAS
 DBCSR| Multrec recursion limit                                              512
 DBCSR| Multiplication stack size                                           1000
 DBCSR| Maximum elements for images                                    UNLIMITED
 DBCSR| Multiplicative factor virtual images                                   1
 DBCSR| Multiplication size stacks                                             3
 DBCSR| Number of 3D layers                                               SINGLE
 DBCSR| Use MPI memory allocation                                              T
 DBCSR| Use RMA algorithm                                                      F
 DBCSR| Use Communication thread                                               T
 DBCSR| Communication thread load                                             87


  **** **** ******  **  PROGRAM STARTED AT               2019-07-08 01:43:45.419
 ***** ** ***  *** **   PROGRAM STARTED ON        blg9233.int.ets1.calculquebec.
 **    ****   ******    PROGRAM STARTED BY                                   rzk
 ***** **    ** ** **   PROGRAM PROCESS ID                                257059
  **** **  *******  **  PROGRAM STARTED IN /lustre04/scratch/rzk/rzk/GaN-carbene
                                           /443-adatoms-both-2x2/09-BondBreaking
                                           -CH/01-0401-CH-to-NSur

 CP2K| version string:                    CP2K version 7.0 (Development Version)
 CP2K| source code revision number:                                    svn:18619
 CP2K| cp2kflags: libint fftw3 libxc parallel mpi3 scalapack mkl                
 CP2K| is freely available from                            https://www.cp2k.org/
 CP2K| Program compiled at                          Sun Apr  7 00:48:11 EDT 2019
 CP2K| Program compiled on                      beluga2.int.ets1.calculquebec.ca
 CP2K| Program compiled for                    Beluga-Linux-x86-64-intel-openmpi
 CP2K| Data directory path    /home/rzk/projects/def-rzk/group/cp2k/cp2k-mcgill/
 CP2K| Input file name                                              start.01.inp
 
 GLOBAL| Force Environment number                                              1
 GLOBAL| Basis set file name                                        BASIS_MOLOPT
 GLOBAL| Potential file name                                      GTH_POTENTIALS
 GLOBAL| MM Potential file name                                     MM_POTENTIAL
 GLOBAL| Coordinate file name                                      __STD_INPUT__
 GLOBAL| Method name                                                        CP2K
 GLOBAL| Project name                                                       TEST
 GLOBAL| Preferred FFT library                                             FFTW3
 GLOBAL| Preferred diagonalization lib.                                       SL
 GLOBAL| Run type                                                        GEO_OPT
 GLOBAL| All-to-all communication in single precision                          F
 GLOBAL| FFTs using library dependent lengths                                  F
 GLOBAL| Global print level                                               MEDIUM
 GLOBAL| MPI I/O enabled                                                       T
 GLOBAL| Total number of message passing processes                            80
 GLOBAL| Number of threads for this process                                    1
 GLOBAL| This output is from process                                           0
 GLOBAL| CPU model name :  Intel(R) Xeon(R) Gold 6148 CPU @ 2.40GHz

 MEMORY| system memory details [Kb]
 MEMORY|                        rank 0           min           max       average
 MEMORY| MemTotal            196614300     196614300     196614300     196614300
 MEMORY| MemFree             180802024     180802024     182907712     181793240
 MEMORY| Buffers                     0             0             0             0
 MEMORY| Cached                2071392       1320828       2071392       1696110
 MEMORY| Slab                  1321972       1067772       1321972       1194872
 MEMORY| SReclaimable           158760        121232        158760        139996
 MEMORY| MemLikelyFree       183032176     183032176     184349772     183629346


 *** Fundamental physical constants (SI units) ***

 *** Literature: B. J. Mohr and B. N. Taylor,
 ***             CODATA recommended values of the fundamental physical
 ***             constants: 2006, Web Version 5.1
 ***             http://physics.nist.gov/constants

 Speed of light in vacuum [m/s]                             2.99792458000000E+08
 Magnetic constant or permeability of vacuum [N/A**2]       1.25663706143592E-06
 Electric constant or permittivity of vacuum [F/m]          8.85418781762039E-12
 Planck constant (h) [J*s]                                  6.62606896000000E-34
 Planck constant (h-bar) [J*s]                              1.05457162825177E-34
 Elementary charge [C]                                      1.60217648700000E-19
 Electron mass [kg]                                         9.10938215000000E-31
 Electron g factor [ ]                                     -2.00231930436220E+00
 Proton mass [kg]                                           1.67262163700000E-27
 Fine-structure constant                                    7.29735253760000E-03
 Rydberg constant [1/m]                                     1.09737315685270E+07
 Avogadro constant [1/mol]                                  6.02214179000000E+23
 Boltzmann constant [J/K]                                   1.38065040000000E-23
 Atomic mass unit [kg]                                      1.66053878200000E-27
 Bohr radius [m]                                            5.29177208590000E-11

 *** Conversion factors ***

 [u] -> [a.u.]                                              1.82288848426455E+03
 [Angstrom] -> [Bohr] = [a.u.]                              1.88972613288564E+00
 [a.u.] = [Bohr] -> [Angstrom]                              5.29177208590000E-01
 [a.u.] -> [s]                                              2.41888432650478E-17
 [a.u.] -> [fs]                                             2.41888432650478E-02
 [a.u.] -> [J]                                              4.35974393937059E-18
 [a.u.] -> [N]                                              8.23872205491840E-08
 [a.u.] -> [K]                                              3.15774647902944E+05
 [a.u.] -> [kJ/mol]                                         2.62549961709828E+03
 [a.u.] -> [kcal/mol]                                       6.27509468713739E+02
 [a.u.] -> [Pa]                                             2.94210107994716E+13
 [a.u.] -> [bar]                                            2.94210107994716E+08
 [a.u.] -> [atm]                                            2.90362800883016E+08
 [a.u.] -> [eV]                                             2.72113838565563E+01
 [a.u.] -> [Hz]                                             6.57968392072181E+15
 [a.u.] -> [1/cm] (wave numbers)                            2.19474631370540E+05
 [a.u./Bohr**2] -> [1/cm]                                   5.14048714338585E+03
 

 CELL_TOP| Volume [angstrom^3]:                                         4586.323
 CELL_TOP| Vector a [angstrom    12.864     0.000     0.000    |a| =      12.864
 CELL_TOP| Vector b [angstrom    -6.432    11.141     0.000    |b| =      12.864
 CELL_TOP| Vector c [angstrom     0.000     0.000    32.000    |c| =      32.000
 CELL_TOP| Angle (b,c), alpha [degree]:                                   90.000
 CELL_TOP| Angle (a,c), beta  [degree]:                                   90.000
 CELL_TOP| Angle (a,b), gamma [degree]:                                  120.000
 CELL_TOP| Numerically orthorhombic:                                          NO
 
 GENERATE|  Preliminary Number of Bonds generated:                             0
 GENERATE|  Achieved consistency in connectivity generation.

 CELL| Volume [angstrom^3]:                                             4586.323
 CELL| Vector a [angstrom]:      12.864     0.000     0.000    |a| =      12.864
 CELL| Vector b [angstrom]:      -6.432    11.141     0.000    |b| =      12.864
 CELL| Vector c [angstrom]:       0.000     0.000    32.000    |c| =      32.000
 CELL| Angle (b,c), alpha [degree]:                                       90.000
 CELL| Angle (a,c), beta  [degree]:                                       90.000
 CELL| Angle (a,b), gamma [degree]:                                      120.000
 CELL| Numerically orthorhombic:                                              NO

 CELL_REF| Volume [angstrom^3]:                                         4670.759
 CELL_REF| Vector a [angstrom    12.982     0.000     0.000    |a| =      12.982
 CELL_REF| Vector b [angstrom    -6.491    11.243     0.000    |b| =      12.982
 CELL_REF| Vector c [angstrom     0.000     0.000    32.000    |c| =      32.000
 CELL_REF| Angle (b,c), alpha [degree]:                                   90.000
 CELL_REF| Angle (a,c), beta  [degree]:                                   90.000
 CELL_REF| Angle (a,b), gamma [degree]:                                  120.000
 CELL_REF| Numerically orthorhombic:                                          NO

 *******************************************************************************
 *******************************************************************************
 **                                                                           **
 **     #####                         ##              ##                      **
 **    ##   ##            ##          ##              ##                      **
 **   ##     ##                       ##            ######                    **
 **   ##     ##  ##   ##  ##   #####  ##  ##   ####   ##    #####    #####    **
 **   ##     ##  ##   ##  ##  ##      ## ##   ##      ##   ##   ##  ##   ##   **
 **   ##  ## ##  ##   ##  ##  ##      ####     ###    ##   ######   ######    **
 **    ##  ###   ##   ##  ##  ##      ## ##      ##   ##   ##       ##        **
 **     #######   #####   ##   #####  ##  ##  ####    ##    #####   ##        **
 **           ##                                                    ##        **
 **                                                                           **
 **                                                ... make the atoms dance   **
 **                                                                           **
 **            Copyright (C) by CP2K developers group (2000 - 2018)           **
 **                                                                           **
 *******************************************************************************

 DFT| Spin unrestricted (spin-polarized) Kohn-Sham calculation               UKS
 DFT| Multiplicity                                                             1
 DFT| Number of spin states                                                    2
 DFT| Charge                                                                   0
 DFT| Self-interaction correction (SIC)                                       NO
 DFT| Cutoffs: density                                              1.000000E-10
 DFT|          gradient                                             1.000000E-10
 DFT|          tau                                                  1.000000E-10
 DFT|          cutoff_smoothing_range                               0.000000E+00
 DFT| XC density smoothing                                                  NONE
 DFT| XC derivatives                                                          PW
 FUNCTIONAL| ROUTINE=NEW
 FUNCTIONAL| PBE:
 FUNCTIONAL| J.P.Perdew, K.Burke, M.Ernzerhof, Phys. Rev. Letter, vol. 77, n 18,
 FUNCTIONAL|  pp. 3865-3868, (1996){spin polarized}                             
 vdW POTENTIAL|                                                   Pair Potential
 vdW POTENTIAL|          DFT-D3 (Version 3.1)
 vdW POTENTIAL|          Potential Form: S. Grimme et al, JCP 132: 154104 (2010)
 vdW POTENTIAL|          Zero Damping
 vdW POTENTIAL|          Cutoff Radius [Bohr]:                             18.90
 vdW POTENTIAL|          s6 Scaling Factor:                               1.0000
 vdW POTENTIAL|          sr6 Scaling Factor:                              1.2170
 vdW POTENTIAL|          s8 Scaling Factor:                               0.7220
 vdW POTENTIAL|          Cutoff for CN calculation:                   0.1000E-05

 QS| Method:                                                                 GPW
 QS| Density plane wave grid type                        NON-SPHERICAL FULLSPACE
 QS| Number of grid levels:                                                    5
 QS| Density cutoff [a.u.]:                                                600.0
 QS| Multi grid cutoff [a.u.]: 1) grid level                               600.0
 QS|                           2) grid level                               200.0
 QS|                           3) grid level                                66.7
 QS|                           4) grid level                                22.2
 QS|                           5) grid level                                 7.4
 QS| Grid level progression factor:                                          3.0
 QS| Relative density cutoff [a.u.]:                                        20.0
 QS| Consistent realspace mapping and integration 
 QS| Interaction thresholds: eps_pgf_orb:                                1.0E-07
 QS|                         eps_filter_matrix:                          0.0E+00
 QS|                         eps_core_charge:                            1.0E-16
 QS|                         eps_rho_gspace:                             1.0E-14
 QS|                         eps_rho_rspace:                             1.0E-14
 QS|                         eps_gvg_rspace:                             1.0E-07
 QS|                         eps_ppl:                                    1.0E-02
 QS|                         eps_ppnl:                                   1.0E-09


 ATOMIC KIND INFORMATION

  1. Atomic kind: N                                     Number of atoms:     100

     Orbital Basis Set                                        DZVP-MOLOPT-SR-GTH

       Number of orbital shell sets:                                           1
       Number of orbital shells:                                               5
       Number of primitive Cartesian functions:                                5
       Number of Cartesian basis functions:                                   14
       Number of spherical basis functions:                                   13
       Norm type:                                                              2

       Normalised Cartesian orbitals:

                        Set   Shell   Orbital            Exponent    Coefficient

                          1       1    2s                7.341988       0.360561
                                                         2.542637       0.139177
                                                         0.888575      -0.289383
                                                         0.333802      -0.182244
                                                         0.112012      -0.019197

                          1       2    3s                7.341988       0.282000
                                                         2.542637       0.177875
                                                         0.888575      -0.278381
                                                         0.333802       0.008577
                                                         0.112012       0.154176

                          1       3    3px               7.341988      -1.188719
                                                         2.542637      -0.973969
                                                         0.888575      -0.501079
                                                         0.333802      -0.144894
                                                         0.112012      -0.013986
                          1       3    3py               7.341988      -1.188719
                                                         2.542637      -0.973969
                                                         0.888575      -0.501079
                                                         0.333802      -0.144894
                                                         0.112012      -0.013986
                          1       3    3pz               7.341988      -1.188719
                                                         2.542637      -0.973969
                                                         0.888575      -0.501079
                                                         0.333802      -0.144894
                                                         0.112012      -0.013986

                          1       4    4px               7.341988      -0.094798
                                                         2.542637       0.050069
                                                         0.888575      -0.114797
                                                         0.333802       0.144793
                                                         0.112012       0.066710
                          1       4    4py               7.341988      -0.094798
                                                         2.542637       0.050069
                                                         0.888575      -0.114797
                                                         0.333802       0.144793
                                                         0.112012       0.066710
                          1       4    4pz               7.341988      -0.094798
                                                         2.542637       0.050069
                                                         0.888575      -0.114797
                                                         0.333802       0.144793
                                                         0.112012       0.066710

                          1       5    4dx2              7.341988       1.354688
                                                         2.542637       0.690378
                                                         0.888575       0.855359
                                                         0.333802       0.091746
                                                         0.112012       0.001253
                          1       5    4dxy              7.341988       2.346389
                                                         2.542637       1.195770
                                                         0.888575       1.481524
                                                         0.333802       0.158910
                                                         0.112012       0.002169
                          1       5    4dxz              7.341988       2.346389
                                                         2.542637       1.195770
                                                         0.888575       1.481524
                                                         0.333802       0.158910
                                                         0.112012       0.002169
                          1       5    4dy2              7.341988       1.354688
                                                         2.542637       0.690378
                                                         0.888575       0.855359
                                                         0.333802       0.091746
                                                         0.112012       0.001253
                          1       5    4dyz              7.341988       2.346389
                                                         2.542637       1.195770
                                                         0.888575       1.481524
                                                         0.333802       0.158910
                                                         0.112012       0.002169
                          1       5    4dz2              7.341988       1.354688
                                                         2.542637       0.690378
                                                         0.888575       0.855359
                                                         0.333802       0.091746
                                                         0.112012       0.001253

     GTH Potential information for                                    GTH-PBE-q5

       Description:                       Goedecker-Teter-Hutter pseudopotential
                                           Goedecker et al., PRB 54, 1703 (1996)
                                          Hartwigsen et al., PRB 58, 3641 (1998)
                                                      Krack, TCA 114, 145 (2005)

       Gaussian exponent of the core charge distribution:               6.208322
       Electronic configuration (s p d ...):                               2   3

       Parameters of the local part of the GTH pseudopotential:

                          rloc        C1          C2          C3          C4
                        0.283791  -12.415226    1.868096

       Parameters of the non-local part of the GTH pseudopotential:

                   l      r(l)      h(i,j,l)

                   0    0.255405   13.630263
                   1    0.245495

  2. Atomic kind: Ga                                    Number of atoms:     100

     Orbital Basis Set                                        DZVP-MOLOPT-SR-GTH

       Number of orbital shell sets:                                           1
       Number of orbital shells:                                               7
       Number of primitive Cartesian functions:                                6
       Number of Cartesian basis functions:                                   30
       Number of spherical basis functions:                                   25
       Norm type:                                                              2

       Normalised Cartesian orbitals:

                        Set   Shell   Orbital            Exponent    Coefficient

                          1       1    2s                7.066654       0.013136
                                                         3.428369      -0.094392
                                                         1.430064       0.265435
                                                         0.571611       0.056465
                                                         0.232197      -0.192187
                                                         0.076562      -0.044987

                          1       2    3s                7.066654      -0.098564
                                                         3.428369       0.010390
                                                         1.430064       0.351249
                                                         0.571611       0.182615
                                                         0.232197      -0.425358
                                                         0.076562       0.190349

                          1       3    3px               7.066654       0.002364
                                                         3.428369       0.019222
                                                         1.430064       0.250132
                                                         0.571611      -0.058486
                                                         0.232197      -0.159451
                                                         0.076562      -0.020696
                          1       3    3py               7.066654       0.002364
                                                         3.428369       0.019222
                                                         1.430064       0.250132
                                                         0.571611      -0.058486
                                                         0.232197      -0.159451
                                                         0.076562      -0.020696
                          1       3    3pz               7.066654       0.002364
                                                         3.428369       0.019222
                                                         1.430064       0.250132
                                                         0.571611      -0.058486
                                                         0.232197      -0.159451
                                                         0.076562      -0.020696

                          1       4    4px               7.066654       0.492448
                                                         3.428369      -0.614736
                                                         1.430064      -0.191654
                                                         0.571611       0.037801
                                                         0.232197       0.302315
                                                         0.076562      -0.071336
                          1       4    4py               7.066654       0.492448
                                                         3.428369      -0.614736
                                                         1.430064      -0.191654
                                                         0.571611       0.037801
                                                         0.232197       0.302315
                                                         0.076562      -0.071336
                          1       4    4pz               7.066654       0.492448
                                                         3.428369      -0.614736
                                                         1.430064      -0.191654
                                                         0.571611       0.037801
                                                         0.232197       0.302315
                                                         0.076562      -0.071336

                          1       5    4dx2              7.066654     -15.264855
                                                         3.428369      -5.345726
                                                         1.430064      -1.022732
                                                         0.571611      -0.123148
                                                         0.232197      -0.006983
                                                         0.076562      -0.000022
                          1       5    4dxy              7.066654     -26.439504
                                                         3.428369      -9.259069
                                                         1.430064      -1.771423
                                                         0.571611      -0.213299
                                                         0.232197      -0.012094
                                                         0.076562      -0.000037
                          1       5    4dxz              7.066654     -26.439504
                                                         3.428369      -9.259069
                                                         1.430064      -1.771423
                                                         0.571611      -0.213299
                                                         0.232197      -0.012094
                                                         0.076562      -0.000037
                          1       5    4dy2              7.066654     -15.264855
                                                         3.428369      -5.345726
                                                         1.430064      -1.022732
                                                         0.571611      -0.123148
                                                         0.232197      -0.006983
                                                         0.076562      -0.000022
                          1       5    4dyz              7.066654     -26.439504
                                                         3.428369      -9.259069
                                                         1.430064      -1.771423
                                                         0.571611      -0.213299
                                                         0.232197      -0.012094
                                                         0.076562      -0.000037
                          1       5    4dz2              7.066654     -15.264855
                                                         3.428369      -5.345726
                                                         1.430064      -1.022732
                                                         0.571611      -0.123148
                                                         0.232197      -0.006983
                                                         0.076562      -0.000022

                          1       6    5dx2              7.066654      -5.739265
                                                         3.428369      -2.129289
                                                         1.430064      -0.700423
                                                         0.571611       0.161606
                                                         0.232197       0.043513
                                                         0.076562       0.011205
                          1       6    5dxy              7.066654      -9.940698
                                                         3.428369      -3.688037
                                                         1.430064      -1.213168
                                                         0.571611       0.279909
                                                         0.232197       0.075368
                                                         0.076562       0.019407
                          1       6    5dxz              7.066654      -9.940698
                                                         3.428369      -3.688037
                                                         1.430064      -1.213168
                                                         0.571611       0.279909
                                                         0.232197       0.075368
                                                         0.076562       0.019407
                          1       6    5dy2              7.066654      -5.739265
                                                         3.428369      -2.129289
                                                         1.430064      -0.700423
                                                         0.571611       0.161606
                                                         0.232197       0.043513
                                                         0.076562       0.011205
                          1       6    5dyz              7.066654      -9.940698
                                                         3.428369      -3.688037
                                                         1.430064      -1.213168
                                                         0.571611       0.279909
                                                         0.232197       0.075368
                                                         0.076562       0.019407
                          1       6    5dz2              7.066654      -5.739265
                                                         3.428369      -2.129289
                                                         1.430064      -0.700423
                                                         0.571611       0.161606
                                                         0.232197       0.043513
                                                         0.076562       0.011205

                          1       7    5fx3              7.066654       0.705879
                                                         3.428369      -0.273976
                                                         1.430064       0.113667
                                                         0.571611       0.132480
                                                         0.232197       0.012437
                                                         0.076562       0.003241
                          1       7    5fx2y             7.066654       1.578393
                                                         3.428369      -0.612629
                                                         1.430064       0.254167
                                                         0.571611       0.296234
                                                         0.232197       0.027811
                                                         0.076562       0.007246
                          1       7    5fx2z             7.066654       1.578393
                                                         3.428369      -0.612629
                                                         1.430064       0.254167
                                                         0.571611       0.296234
                                                         0.232197       0.027811
                                                         0.076562       0.007246
                          1       7    5fxy2             7.066654       1.578393
                                                         3.428369      -0.612629
                                                         1.430064       0.254167
                                                         0.571611       0.296234
                                                         0.232197       0.027811
                                                         0.076562       0.007246
                          1       7    5fxyz             7.066654       2.733856
                                                         3.428369      -1.061105
                                                         1.430064       0.440230
                                                         0.571611       0.513092
                                                         0.232197       0.048170
                                                         0.076562       0.012551
                          1       7    5fxz2             7.066654       1.578393
                                                         3.428369      -0.612629
                                                         1.430064       0.254167
                                                         0.571611       0.296234
                                                         0.232197       0.027811
                                                         0.076562       0.007246
                          1       7    5fy3              7.066654       0.705879
                                                         3.428369      -0.273976
                                                         1.430064       0.113667
                                                         0.571611       0.132480
                                                         0.232197       0.012437
                                                         0.076562       0.003241
                          1       7    5fy2z             7.066654       1.578393
                                                         3.428369      -0.612629
                                                         1.430064       0.254167
                                                         0.571611       0.296234
                                                         0.232197       0.027811
                                                         0.076562       0.007246
                          1       7    5fyz2             7.066654       1.578393
                                                         3.428369      -0.612629
                                                         1.430064       0.254167
                                                         0.571611       0.296234
                                                         0.232197       0.027811
                                                         0.076562       0.007246
                          1       7    5fz3              7.066654       0.705879
                                                         3.428369      -0.273976
                                                         1.430064       0.113667
                                                         0.571611       0.132480
                                                         0.232197       0.012437
                                                         0.076562       0.003241

     GTH Potential information for                                   GTH-PBE-q13

       Description:                       Goedecker-Teter-Hutter pseudopotential
                                           Goedecker et al., PRB 54, 1703 (1996)
                                          Hartwigsen et al., PRB 58, 3641 (1998)
                                                      Krack, TCA 114, 145 (2005)

       Gaussian exponent of the core charge distribution:               2.082466
       Electronic configuration (s p d ...):                           2   1  10

       Parameters of the local part of the GTH pseudopotential:

                          rloc        C1          C2          C3          C4
                        0.490000

       Parameters of the non-local part of the GTH pseudopotential:

                   l      r(l)      h(i,j,l)

                   0    0.416777   10.475690   -4.921768    0.870706
                                   -4.921768    7.770178   -2.248152
                                    0.870706   -2.248152    1.784415
                   1    0.569627    1.777985    0.195860
                                    0.195860   -0.231744
                   2    0.238126  -16.248680

  3. Atomic kind: O                                     Number of atoms:       2

     Orbital Basis Set                                     DZVP-MOLOPT-SR-GTH-q6

       Number of orbital shell sets:                                           1
       Number of orbital shells:                                               5
       Number of primitive Cartesian functions:                                5
       Number of Cartesian basis functions:                                   14
       Number of spherical basis functions:                                   13
       Norm type:                                                              2

       Normalised Cartesian orbitals:

                        Set   Shell   Orbital            Exponent    Coefficient

                          1       1    2s               10.389228       0.396646
                                                         3.849621       0.208811
                                                         1.388401      -0.301641
                                                         0.496955      -0.274061
                                                         0.162492      -0.033677

                          1       2    3s               10.389228       0.303673
                                                         3.849621       0.240943
                                                         1.388401      -0.313066
                                                         0.496955      -0.043055
                                                         0.162492       0.213991

                          1       3    3px              10.389228      -1.530415
                                                         3.849621      -1.371928
                                                         1.388401      -0.761951
                                                         0.496955      -0.253695
                                                         0.162492      -0.035541
                          1       3    3py              10.389228      -1.530415
                                                         3.849621      -1.371928
                                                         1.388401      -0.761951
                                                         0.496955      -0.253695
                                                         0.162492      -0.035541
                          1       3    3pz              10.389228      -1.530415
                                                         3.849621      -1.371928
                                                         1.388401      -0.761951
                                                         0.496955      -0.253695
                                                         0.162492      -0.035541

                          1       4    4px              10.389228      -0.565392
                                                         3.849621      -0.038231
                                                         1.388401      -0.382373
                                                         0.496955       0.179070
                                                         0.162492       0.122714
                          1       4    4py              10.389228      -0.565392
                                                         3.849621      -0.038231
                                                         1.388401      -0.382373
                                                         0.496955       0.179070
                                                         0.162492       0.122714
                          1       4    4pz              10.389228      -0.565392
                                                         3.849621      -0.038231
                                                         1.388401      -0.382373
                                                         0.496955       0.179070
                                                         0.162492       0.122714

                          1       5    4dx2             10.389228       1.867377
                                                         3.849621       0.670994
                                                         1.388401       1.353441
                                                         0.496955       0.273538
                                                         0.162492       0.006620
                          1       5    4dxy             10.389228       3.234392
                                                         3.849621       1.162195
                                                         1.388401       2.344229
                                                         0.496955       0.473781
                                                         0.162492       0.011466
                          1       5    4dxz             10.389228       3.234392
                                                         3.849621       1.162195
                                                         1.388401       2.344229
                                                         0.496955       0.473781
                                                         0.162492       0.011466
                          1       5    4dy2             10.389228       1.867377
                                                         3.849621       0.670994
                                                         1.388401       1.353441
                                                         0.496955       0.273538
                                                         0.162492       0.006620
                          1       5    4dyz             10.389228       3.234392
                                                         3.849621       1.162195
                                                         1.388401       2.344229
                                                         0.496955       0.473781
                                                         0.162492       0.011466
                          1       5    4dz2             10.389228       1.867377
                                                         3.849621       0.670994
                                                         1.388401       1.353441
                                                         0.496955       0.273538
                                                         0.162492       0.006620

     GTH Potential information for                                    GTH-PBE-q6

       Description:                       Goedecker-Teter-Hutter pseudopotential
                                           Goedecker et al., PRB 54, 1703 (1996)
                                          Hartwigsen et al., PRB 58, 3641 (1998)
                                                      Krack, TCA 114, 145 (2005)

       Gaussian exponent of the core charge distribution:               8.360253
       Electronic configuration (s p d ...):                               2   4

       Parameters of the local part of the GTH pseudopotential:

                          rloc        C1          C2          C3          C4
                        0.244554  -16.667215    2.487311

       Parameters of the non-local part of the GTH pseudopotential:

                   l      r(l)      h(i,j,l)

                   0    0.220956   18.337458
                   1    0.211332

  4. Atomic kind: H                                     Number of atoms:       8

     Orbital Basis Set                                     DZVP-MOLOPT-SR-GTH-q1

       Number of orbital shell sets:                                           1
       Number of orbital shells:                                               3
       Number of primitive Cartesian functions:                                5
       Number of Cartesian basis functions:                                    5
       Number of spherical basis functions:                                    5
       Norm type:                                                              2

       Normalised Cartesian orbitals:

                        Set   Shell   Orbital            Exponent    Coefficient

                          1       1    2s               10.068468      -0.133023
                                                         2.680223      -0.177618
                                                         0.791502      -0.258419
                                                         0.239116      -0.107525
                                                         0.082193      -0.014019

                          1       2    3s               10.068468       0.344673
                                                         2.680223       1.819821
                                                         0.791502      -0.999069
                                                         0.239116       0.017430
                                                         0.082193       0.082660

                          1       3    3px              10.068468       0.155326
                                                         2.680223       0.367157
                                                         0.791502       0.311480
                                                         0.239116       0.080105
                                                         0.082193       0.033440
                          1       3    3py              10.068468       0.155326
                                                         2.680223       0.367157
                                                         0.791502       0.311480
                                                         0.239116       0.080105
                                                         0.082193       0.033440
                          1       3    3pz              10.068468       0.155326
                                                         2.680223       0.367157
                                                         0.791502       0.311480
                                                         0.239116       0.080105
                                                         0.082193       0.033440

     GTH Potential information for                                    GTH-PBE-q1

       Description:                       Goedecker-Teter-Hutter pseudopotential
                                           Goedecker et al., PRB 54, 1703 (1996)
                                          Hartwigsen et al., PRB 58, 3641 (1998)
                                                      Krack, TCA 114, 145 (2005)

       Gaussian exponent of the core charge distribution:              12.500000
       Electronic configuration (s p d ...):                                   1

       Parameters of the local part of the GTH pseudopotential:

                          rloc        C1          C2          C3          C4
                        0.200000   -4.178900    0.724463

  5. Atomic kind: C                                     Number of atoms:       2

     Orbital Basis Set                                     DZVP-MOLOPT-SR-GTH-q4

       Number of orbital shell sets:                                           1
       Number of orbital shells:                                               5
       Number of primitive Cartesian functions:                                5
       Number of Cartesian basis functions:                                   14
       Number of spherical basis functions:                                   13
       Norm type:                                                              2

       Normalised Cartesian orbitals:

                        Set   Shell   Orbital            Exponent    Coefficient

                          1       1    2s                5.605331       0.322515
                                                         2.113016       0.213043
                                                         0.769911      -0.209686
                                                         0.348157      -0.219794
                                                         0.128212      -0.022789

                          1       2    3s                5.605331       0.552234
                                                         2.113016       0.082072
                                                         0.769911       0.007843
                                                         0.348157       0.136893
                                                         0.128212       0.074283

                          1       3    3px               5.605331      -0.703879
                                                         2.113016      -0.642521
                                                         0.769911      -0.374851
                                                         0.348157      -0.139743
                                                         0.128212      -0.027849
                          1       3    3py               5.605331      -0.703879
                                                         2.113016      -0.642521
                                                         0.769911      -0.374851
                                                         0.348157      -0.139743
                                                         0.128212      -0.027849
                          1       3    3pz               5.605331      -0.703879
                                                         2.113016      -0.642521
                                                         0.769911      -0.374851
                                                         0.348157      -0.139743
                                                         0.128212      -0.027849

                          1       4    4px               5.605331      -0.480376
                                                         2.113016      -0.552894
                                                         0.769911      -0.316145
                                                         0.348157       0.210505
                                                         0.128212       0.076095
                          1       4    4py               5.605331      -0.480376
                                                         2.113016      -0.552894
                                                         0.769911      -0.316145
                                                         0.348157       0.210505
                                                         0.128212       0.076095
                          1       4    4pz               5.605331      -0.480376
                                                         2.113016      -0.552894
                                                         0.769911      -0.316145
                                                         0.348157       0.210505
                                                         0.128212       0.076095

                          1       5    4dx2              5.605331       0.640026
                                                         2.113016       0.274300
                                                         0.769911       0.446711
                                                         0.348157       0.028674
                                                         0.128212       0.029790
                          1       5    4dxy              5.605331       1.108557
                                                         2.113016       0.475102
                                                         0.769911       0.773726
                                                         0.348157       0.049666
                                                         0.128212       0.051599
                          1       5    4dxz              5.605331       1.108557
                                                         2.113016       0.475102
                                                         0.769911       0.773726
                                                         0.348157       0.049666
                                                         0.128212       0.051599
                          1       5    4dy2              5.605331       0.640026
                                                         2.113016       0.274300
                                                         0.769911       0.446711
                                                         0.348157       0.028674
                                                         0.128212       0.029790
                          1       5    4dyz              5.605331       1.108557
                                                         2.113016       0.475102
                                                         0.769911       0.773726
                                                         0.348157       0.049666
                                                         0.128212       0.051599
                          1       5    4dz2              5.605331       0.640026
                                                         2.113016       0.274300
                                                         0.769911       0.446711
                                                         0.348157       0.028674
                                                         0.128212       0.029790

     GTH Potential information for                                    GTH-PBE-q4

       Description:                       Goedecker-Teter-Hutter pseudopotential
                                           Goedecker et al., PRB 54, 1703 (1996)
                                          Hartwigsen et al., PRB 58, 3641 (1998)
                                                      Krack, TCA 114, 145 (2005)

       Gaussian exponent of the core charge distribution:               4.364419
       Electronic configuration (s p d ...):                               2   2

       Parameters of the local part of the GTH pseudopotential:

                          rloc        C1          C2          C3          C4
                        0.338471   -8.803674    1.339211

       Parameters of the non-local part of the GTH pseudopotential:

                   l      r(l)      h(i,j,l)

                   0    0.302576    9.622487
                   1    0.291507


 MOLECULE KIND INFORMATION


 All atoms are their own molecule, skipping detailed information


 TOTAL NUMBERS AND MAXIMUM NUMBERS

  Total number of            - Atomic kinds:                                   5
                             - Atoms:                                        212
                             - Shell sets:                                   212
                             - Shells:                                      1244
                             - Primitive Cartesian functions:               1160
                             - Cartesian basis functions:                   4496
                             - Spherical basis functions:                   3892

  Maximum angular momentum of- Orbital basis functions:                        3
                             - Local part of the GTH pseudopotential:          2
                             - Non-local part of the GTH pseudopotential:      4


 MODULE QUICKSTEP:  ATOMIC COORDINATES IN angstrom

  Atom  Kind  Element       X           Y           Z          Z(eff)       Mass

       1     1 N    7    0.008374    1.934841    2.513515      5.00      14.0067
       2     2 Ga  31    0.001418   -0.029362    2.827196     13.00      69.7230
       3     1 N    7    0.009958   -0.065537    5.029951      5.00      14.0067
       4     2 Ga  31    0.014336    1.762469    5.800640     13.00      69.7230
       5     1 N    7    0.015266    1.778416    7.807644      5.00      14.0067
       6     2 Ga  31    0.016944   -0.066534    8.446865     13.00      69.7230
       7     1 N    7    0.016691   -0.067301   10.423783      5.00      14.0067
       8     2 Ga  31    0.017239    1.773330   11.071431     13.00      69.7230
       9     1 N    7    0.016921    1.754486   13.068182      5.00      14.0067
      10     2 Ga  31    0.017077   -0.066349   13.868068     13.00      69.7230
      11     1 N    7    0.015999   -0.067527   16.072252      5.00      14.0067
      12     2 Ga  31    0.016893    1.969561   16.479265     13.00      69.7230
      13     2 Ga  31    0.002718    3.627360    1.326243     13.00      69.7230
      14     1 N    7   -1.469518    4.511173    2.514544      5.00      14.0067
      15     2 Ga  31   -1.655594    2.678665    3.281377     13.00      69.7230
      16     1 N    7   -1.593951    2.722568    5.267112      5.00      14.0067
      17     2 Ga  31   -1.616121    4.587308    5.809427     13.00      69.7230
      18     1 N    7   -1.600183    4.584475    7.808934      5.00      14.0067
      19     2 Ga  31   -1.580392    2.724599    8.443045     13.00      69.7230
      20     1 N    7   -1.580433    2.726471   10.439632      5.00      14.0067
      21     2 Ga  31   -1.606380    4.584566   11.074417     13.00      69.7230
      22     1 N    7   -1.623166    4.594811   13.069740      5.00      14.0067
      23     2 Ga  31   -1.580168    2.725573   13.622535     13.00      69.7230
      24     1 N    7   -1.607099    2.709934   15.587451      5.00      14.0067
      25     2 Ga  31   -1.436781    4.486887   16.479530     13.00      69.7230
      26     1 N    7    0.008546    3.642945   17.611210      5.00      14.0067
      27     1 N    7   -3.203256    7.469804    2.509698      5.00      14.0067
      28     2 Ga  31   -3.155629    5.499527    2.856900     13.00      69.7230
      29     1 N    7   -3.201026    5.500986    5.036650      5.00      14.0067
      30     2 Ga  31   -3.199235    7.326811    5.800299     13.00      69.7230
      31     1 N    7   -3.200689    7.353385    7.796436      5.00      14.0067
      32     2 Ga  31   -3.197626    5.507350    8.451104     13.00      69.7230
      33     1 N    7   -3.199692    5.505841   10.425344      5.00      14.0067
      34     2 Ga  31   -3.199759    7.344695   11.074959     13.00      69.7230
      35     1 N    7   -3.199388    7.324955   13.068835      5.00      14.0067
      36     2 Ga  31   -3.199487    5.505003   13.871334     13.00      69.7230
      37     1 N    7   -3.200983    5.504659   16.073558      5.00      14.0067
      38     2 Ga  31   -3.199217    7.546726   16.486145     13.00      69.7230
      39     2 Ga  31   -3.195620    9.273799    1.253549     13.00      69.7230
      40     1 N    7   -4.721206   10.092919    2.504194      5.00      14.0067
      41     2 Ga  31   -4.807875    8.303314    3.291933     13.00      69.7230
      42     1 N    7   -4.819286    8.282874    5.239890      5.00      14.0067
      43     2 Ga  31   -4.838876   10.170682    5.793822     13.00      69.7230
      44     1 N    7   -4.817647   10.149306    7.796240      5.00      14.0067
      45     2 Ga  31   -4.796827    8.298862    8.443003     13.00      69.7230
      46     1 N    7   -4.797052    8.295144   10.436127      5.00      14.0067
      47     2 Ga  31   -4.822074   10.155502   11.071993     13.00      69.7230
      48     1 N    7   -4.838480   10.164340   13.067301      5.00      14.0067
      49     2 Ga  31   -4.795906    8.296508   13.625146     13.00      69.7230
      50     1 N    7   -4.824530    8.279920   15.587587      5.00      14.0067
      51     2 Ga  31   -4.646534   10.054012   16.485783     13.00      69.7230
      52     1 N    7   -3.205978    9.214370   17.622672      5.00      14.0067
      53     1 N    7    3.217607    1.791914    2.630912      5.00      14.0067
      54     2 Ga  31    3.222864    0.024913    3.251366     13.00      69.7230
      55     1 N    7    3.231367   -0.072157    5.240496      5.00      14.0067
      56     2 Ga  31    3.222063    1.783377    5.866863     13.00      69.7230
      57     1 N    7    3.233061    1.788760    7.850430      5.00      14.0067
      58     2 Ga  31    3.232216   -0.078065    8.434161     13.00      69.7230
      59     1 N    7    3.232410   -0.079933   10.432117      5.00      14.0067
      60     2 Ga  31    3.231224    1.788988   11.028401     13.00      69.7230
      61     1 N    7    3.232631    1.790477   13.002134      5.00      14.0067
      62     2 Ga  31    3.233361   -0.078841   13.623810     13.00      69.7230
      63     1 N    7    3.234184   -0.046859   15.585282      5.00      14.0067
      64     2 Ga  31    3.232850    1.790449   15.864904     13.00      69.7230
      65     1 N    7    1.508635    4.512284    2.524273      5.00      14.0067
      66     2 Ga  31    1.683079    2.675326    3.268437     13.00      69.7230
      67     1 N    7    1.623480    2.716143    5.259002      5.00      14.0067
      68     2 Ga  31    1.646620    4.578859    5.811016     13.00      69.7230
      69     1 N    7    1.631840    4.581911    7.809201      5.00      14.0067
      70     2 Ga  31    1.614597    2.721161    8.438419     13.00      69.7230
      71     1 N    7    1.614098    2.725232   10.436072      5.00      14.0067
      72     2 Ga  31    1.639542    4.583112   11.072291     13.00      69.7230
      73     1 N    7    1.656555    4.594248   13.067745      5.00      14.0067
      74     2 Ga  31    1.614182    2.725737   13.622249     13.00      69.7230
      75     1 N    7    1.641215    2.711876   15.585927      5.00      14.0067
      76     2 Ga  31    1.462745    4.482276   16.480798     13.00      69.7230
      77     1 N    7    0.022213    7.362678    2.678932      5.00      14.0067
      78     2 Ga  31    0.022490    5.504870    3.313529     13.00      69.7230
      79     1 N    7    0.017020    5.522393    5.260524      5.00      14.0067
      80     2 Ga  31    0.020265    7.365045    5.890522     13.00      69.7230
      81     1 N    7    0.016534    7.363349    7.858521      5.00      14.0067
      82     2 Ga  31    0.016391    5.493365    8.446778     13.00      69.7230
      83     1 N    7    0.016426    5.492259   10.439943      5.00      14.0067
      84     2 Ga  31    0.015750    7.360975   11.031441     13.00      69.7230
      85     1 N    7    0.016664    7.361164   13.003840      5.00      14.0067
      86     2 Ga  31    0.017393    5.491443   13.623077     13.00      69.7230
      87     1 N    7    0.018840    5.522423   15.586505      5.00      14.0067
      88     2 Ga  31    0.016835    7.361392   15.865314     13.00      69.7230
      89     1 N    7   -1.685444   10.090558    2.516350      5.00      14.0067
      90     2 Ga  31   -1.584911    8.286632    3.285914     13.00      69.7230
      91     1 N    7   -1.581235    8.281416    5.237517      5.00      14.0067
      92     2 Ga  31   -1.569023   10.164326    5.795082     13.00      69.7230
      93     1 N    7   -1.582583   10.149219    7.795938      5.00      14.0067
      94     2 Ga  31   -1.602407    8.297691    8.442455     13.00      69.7230
      95     1 N    7   -1.603208    8.295358   10.435860      5.00      14.0067
      96     2 Ga  31   -1.578038   10.155070   11.072213     13.00      69.7230
      97     1 N    7   -1.559941   10.164493   13.066883      5.00      14.0067
      98     2 Ga  31   -1.602261    8.296702   13.624749     13.00      69.7230
      99     1 N    7   -1.573700    8.281111   15.586065      5.00      14.0067
     100     2 Ga  31   -1.757795   10.050577   16.486107     13.00      69.7230
     101     1 N    7    6.451449    1.908323    2.552121      5.00      14.0067
     102     2 Ga  31    6.461956   -0.089186    2.871331     13.00      69.7230
     103     1 N    7    6.451907   -0.064699    5.036932      5.00      14.0067
     104     2 Ga  31    6.449306    1.758653    5.813473     13.00      69.7230
     105     1 N    7    6.449049    1.778932    7.809930      5.00      14.0067
     106     2 Ga  31    6.447510   -0.069350    8.448433     13.00      69.7230
     107     1 N    7    6.448231   -0.067381   10.424183      5.00      14.0067
     108     2 Ga  31    6.448073    1.772753   11.073689     13.00      69.7230
     109     1 N    7    6.449084    1.754173   13.069172      5.00      14.0067
     110     2 Ga  31    6.448058   -0.066639   13.869918     13.00      69.7230
     111     1 N    7    6.446861   -0.067318   16.072829      5.00      14.0067
     112     2 Ga  31    6.448900    1.970719   16.482111     13.00      69.7230
     113     2 Ga  31    6.446218    3.610917    1.544254     13.00      69.7230
     114     1 N    7    4.954974    4.515977    2.543089      5.00      14.0067
     115     2 Ga  31    4.723029    2.646664    3.307814     13.00      69.7230
     116     1 N    7    4.842440    2.718068    5.267030      5.00      14.0067
     117     2 Ga  31    4.809715    4.583742    5.823841     13.00      69.7230
     118     1 N    7    4.834629    4.581203    7.812721      5.00      14.0067
     119     2 Ga  31    4.847840    2.719574    8.443984     13.00      69.7230
     120     1 N    7    4.850677    2.724997   10.438613      5.00      14.0067
     121     2 Ga  31    4.824795    4.583791   11.074078     13.00      69.7230
     122     1 N    7    4.809335    4.594358   13.068856      5.00      14.0067
     123     2 Ga  31    4.851671    2.725210   13.623654     13.00      69.7230
     124     1 N    7    4.824236    2.710207   15.587694      5.00      14.0067
     125     2 Ga  31    4.997974    4.484970   16.483335     13.00      69.7230
     126     1 N    7    6.441367    3.641702   17.617161      5.00      14.0067
     127     1 N    7    3.225686    7.434629    2.492996      5.00      14.0067
     128     1 N    7    3.235991    5.492890    5.055504      5.00      14.0067
     129     2 Ga  31    3.231881    7.328011    5.800483     13.00      69.7230
     130     1 N    7    3.233123    7.352146    7.797984      5.00      14.0067
     131     2 Ga  31    3.230514    5.505259    8.449498     13.00      69.7230
     132     1 N    7    3.232597    5.505000   10.424418      5.00      14.0067
     133     2 Ga  31    3.232281    7.342689   11.076741     13.00      69.7230
     134     1 N    7    3.232911    7.324286   13.070468      5.00      14.0067
     135     2 Ga  31    3.232423    5.503518   13.869389     13.00      69.7230
     136     1 N    7    3.231403    5.503521   16.073093      5.00      14.0067
     137     2 Ga  31    3.232710    7.541900   16.482227     13.00      69.7230
     138     2 Ga  31    3.222847    9.469200    1.256373     13.00      69.7230
     139     1 N    7    1.749753   10.103045    2.527488      5.00      14.0067
     140     2 Ga  31    1.644761    8.282871    3.274334     13.00      69.7230
     141     1 N    7    1.615907    8.282087    5.234791      5.00      14.0067
     142     2 Ga  31    1.598977   10.158425    5.806384     13.00      69.7230
     143     1 N    7    1.613485   10.147325    7.804646      5.00      14.0067
     144     2 Ga  31    1.635241    8.295532    8.446607     13.00      69.7230
     145     1 N    7    1.635937    8.294350   10.439287      5.00      14.0067
     146     2 Ga  31    1.610249   10.155095   11.073126     13.00      69.7230
     147     1 N    7    1.593287   10.164685   13.068724      5.00      14.0067
     148     2 Ga  31    1.635891    8.296340   13.624454     13.00      69.7230
     149     1 N    7    1.609103    8.279949   15.588453      5.00      14.0067
     150     2 Ga  31    1.779703   10.057236   16.481120     13.00      69.7230
     151     1 N    7    3.223906    9.214633   17.616884      5.00      14.0067
     152     1 N    7    9.676004    1.790574    2.650740      5.00      14.0067
     153     2 Ga  31    9.667641    0.040733    3.322157     13.00      69.7230
     154     1 N    7    9.665122   -0.063711    5.284778      5.00      14.0067
     155     2 Ga  31    9.672963    1.795344    5.887170     13.00      69.7230
     156     1 N    7    9.663263    1.793241    7.864306      5.00      14.0067
     157     2 Ga  31    9.664753   -0.077932    8.437072     13.00      69.7230
     158     1 N    7    9.664597   -0.079549   10.435017      5.00      14.0067
     159     2 Ga  31    9.665500    1.789864   11.029064     13.00      69.7230
     160     1 N    7    9.665061    1.790445   13.003139      5.00      14.0067
     161     2 Ga  31    9.665623   -0.078753   13.623532     13.00      69.7230
     162     1 N    7    9.666915   -0.048125   15.586568      5.00      14.0067
     163     2 Ga  31    9.665348    1.790506   15.864053     13.00      69.7230
     164     1 N    7    7.944719    4.525386    2.532758      5.00      14.0067
     165     2 Ga  31    8.172609    2.658175    3.313011     13.00      69.7230
     166     1 N    7    8.054275    2.724815    5.272001      5.00      14.0067
     167     2 Ga  31    8.090553    4.592511    5.819585     13.00      69.7230
     168     1 N    7    8.063994    4.584665    7.810804      5.00      14.0067
     169     2 Ga  31    8.046661    2.724017    8.447703     13.00      69.7230
     170     1 N    7    8.045193    2.726486   10.441082      5.00      14.0067
     171     2 Ga  31    8.072365    4.585010   11.075406     13.00      69.7230
     172     1 N    7    8.089057    4.594853   13.069276      5.00      14.0067
     173     2 Ga  31    8.046678    2.725804   13.623812     13.00      69.7230
     174     1 N    7    8.074124    2.711252   15.586623      5.00      14.0067
     175     2 Ga  31    7.893645    4.481572   16.483742     13.00      69.7230
     176     1 N    7    6.442044    7.376898    2.681012      5.00      14.0067
     177     2 Ga  31    6.446968    5.551813    3.344932     13.00      69.7230
     178     1 N    7    6.447688    5.522176    5.268061      5.00      14.0067
     179     2 Ga  31    6.441200    7.378308    5.894208     13.00      69.7230
     180     1 N    7    6.446553    7.363330    7.857977      5.00      14.0067
     181     2 Ga  31    6.448786    5.494581    8.451885     13.00      69.7230
     182     1 N    7    6.448604    5.493022   10.441548      5.00      14.0067
     183     2 Ga  31    6.448721    7.362181   11.033336     13.00      69.7230
     184     1 N    7    6.448707    7.361275   13.004678      5.00      14.0067
     185     2 Ga  31    6.449384    5.491466   13.624577     13.00      69.7230
     186     1 N    7    6.449866    5.522732   15.587040      5.00      14.0067
     187     2 Ga  31    6.448994    7.361426   15.865796     13.00      69.7230
     188     1 N    7    4.708951   10.101813    2.493098      5.00      14.0067
     189     2 Ga  31    4.803488    8.291346    3.262957     13.00      69.7230
     190     1 N    7    4.846085    8.284195    5.224009      5.00      14.0067
     191     2 Ga  31    4.871050   10.162747    5.804221     13.00      69.7230
     192     1 N    7    4.851127   10.146529    7.804044      5.00      14.0067
     193     2 Ga  31    4.827403    8.297094    8.448988     13.00      69.7230
     194     1 N    7    4.828842    8.294347   10.440017      5.00      14.0067
     195     2 Ga  31    4.855228   10.155656   11.072458     13.00      69.7230
     196     1 N    7    4.872380   10.164534   13.067702      5.00      14.0067
     197     2 Ga  31    4.829831    8.296888   13.624451     13.00      69.7230
     198     1 N    7    4.856821    8.281815   15.587276      5.00      14.0067
     199     2 Ga  31    4.678064   10.052737   16.482524     13.00      69.7230
     200     3 O    8    0.026845    3.744574   -0.480859      6.00      15.9994
     201     4 H    1    2.565432    7.073018    0.607228      1.00       1.0079
     202     5 C    6    1.315027    3.895876   -1.105778      4.00      12.0107
     203     4 H    1    1.803502    4.843470   -0.825869      1.00       1.0079
     204     4 H    1    1.995965    3.061700   -0.870637      1.00       1.0079
     205     4 H    1    1.144079    3.907527   -2.193293      1.00       1.0079
     206     2 Ga  31    3.191423    5.493797    2.908123     13.00      69.7230
     207     3 O    8    2.185117    7.408476   -0.241371      6.00      15.9994
     208     4 H    1    0.039618    7.345289    1.650301      1.00       1.0079
     209     5 C    6    2.893335    8.620605   -0.524283      4.00      12.0107
     210     4 H    1    2.255034    9.264960   -1.141626      1.00       1.0079
     211     4 H    1    6.454062    7.350161    1.654804      1.00       1.0079
     212     4 H    1    3.842862    8.442509   -1.052008      1.00       1.0079




 SCF PARAMETERS         Density guess:                                    ATOMIC
                        --------------------------------------------------------
                        max_scf:                                              80
                        max_scf_history:                                       0
                        max_diis:                                              4
                        --------------------------------------------------------
                        eps_scf:                                        5.00E-06
                        eps_scf_history:                                0.00E+00
                        eps_diis:                                       1.00E-01
                        eps_eigval:                                     1.00E-05
                        --------------------------------------------------------
                        level_shift [a.u.]:                                 0.00
                        --------------------------------------------------------
                        Outer loop SCF in use 
                        No variables optimised in outer loop
                        eps_scf                                         5.00E-06
                        max_scf                                                4
                        No outer loop optimization
                        step_size                                       5.00E-01

 PW_GRID| Information for grid number                                          1
 PW_GRID| Grid distributed over                                    80 processors
 PW_GRID| Real space group dimensions                                    80    1
 PW_GRID| the grid is blocked:                                                NO
 PW_GRID| Cutoff [a.u.]                                                    600.0
 PW_GRID| spherical cutoff:                                                   NO
 PW_GRID|   Bounds   1           -144     143                Points:         288
 PW_GRID|   Bounds   2           -144     143                Points:         288
 PW_GRID|   Bounds   3           -337     337                Points:         675
 PW_GRID| Volume element (a.u.^3)  0.5630E-03     Volume (a.u.^3)     31519.8467
 PW_GRID| Grid span                                                    FULLSPACE
 PW_GRID|   Distribution                         Average         Max         Min
 PW_GRID|   G-Vectors                           699840.0      699840      699840
 PW_GRID|   G-Rays                                2430.0        2430        2430
 PW_GRID|   Real Space Points                   699840.0      777600      583200

 PW_GRID| Information for grid number                                          2
 PW_GRID| Grid distributed over                                    80 processors
 PW_GRID| Real space group dimensions                                    80    1
 PW_GRID| the grid is blocked:                                                NO
 PW_GRID| Cutoff [a.u.]                                                    200.0
 PW_GRID| spherical cutoff:                                                   NO
 PW_GRID|   Bounds   1            -80      79                Points:         160
 PW_GRID|   Bounds   2            -80      79                Points:         160
 PW_GRID|   Bounds   3           -200     199                Points:         400
 PW_GRID| Volume element (a.u.^3)  0.3078E-02     Volume (a.u.^3)     31519.8467
 PW_GRID| Grid span                                                    FULLSPACE
 PW_GRID|   Distribution                         Average         Max         Min
 PW_GRID|   G-Vectors                           128000.0      128160      127840
 PW_GRID|   G-Rays                                 800.0         801         799
 PW_GRID|   Real Space Points                   128000.0      128000      128000

 PW_GRID| Information for grid number                                          3
 PW_GRID| Grid distributed over                                    80 processors
 PW_GRID| Real space group dimensions                                    80    1
 PW_GRID| the grid is blocked:                                                NO
 PW_GRID| Cutoff [a.u.]                                                     66.7
 PW_GRID| spherical cutoff:                                                   NO
 PW_GRID|   Bounds   1            -48      47                Points:          96
 PW_GRID|   Bounds   2            -48      47                Points:          96
 PW_GRID|   Bounds   3           -112     112                Points:         225
 PW_GRID| Volume element (a.u.^3)  0.1520E-01     Volume (a.u.^3)     31519.8467
 PW_GRID| Grid span                                                    FULLSPACE
 PW_GRID|   Distribution                         Average         Max         Min
 PW_GRID|   G-Vectors                            25920.0       26688       24864
 PW_GRID|   G-Rays                                 270.0         278         259
 PW_GRID|   Real Space Points                    25920.0       43200       21600

 PW_GRID| Information for grid number                                          4
[...]
 flops   955 x    64 x    50         599073792000     100.0%      0.0%      0.0%
 flops    13 x    25 x    50         601013075000     100.0%      0.0%      0.0%
 flops    25 x    13 x    50         601987880000     100.0%      0.0%      0.0%
 flops   991 x    50 x    64         621656678400     100.0%      0.0%      0.0%
 flops   991 x    64 x    50         621656678400     100.0%      0.0%      0.0%
 flops    25 x    18 x    13         766095302700     100.0%      0.0%      0.0%
 flops    13 x    18 x    25         766095302700     100.0%      0.0%      0.0%
 flops   242 x    64 x   178         786213502976     100.0%      0.0%      0.0%
 flops   242 x    64 x   183         808298151936     100.0%      0.0%      0.0%
 flops   973 x    32 x    50         839252198400     100.0%      0.0%      0.0%
 flops   973 x    50 x    32         839252198400     100.0%      0.0%      0.0%
 flops   242 x    64 x   195         861301309440     100.0%      0.0%      0.0%
 flops   955 x    32 x   178         907599728640     100.0%      0.0%      0.0%
 flops   955 x    32 x   183         933094103040     100.0%      0.0%      0.0%
 flops   991 x    32 x   178         941812912128     100.0%      0.0%      0.0%
 flops   991 x    32 x   183         968268331008     100.0%      0.0%      0.0%
 flops   955 x    32 x   195         994280601600     100.0%      0.0%      0.0%
 flops   242 x    32 x    32        1001971007488     100.0%      0.0%      0.0%
 flops   991 x    32 x   195        1031761336320     100.0%      0.0%      0.0%
 flops     5 x    32 x    25        1101000992000     100.0%      0.0%      0.0%
 flops    25 x    32 x     5        1101000992000     100.0%      0.0%      0.0%
 flops    25 x    25 x    50        1155818750000     100.0%      0.0%      0.0%
 flops   973 x    64 x    50        1220730470400     100.0%      0.0%      0.0%
 flops   973 x    50 x    64        1220730470400     100.0%      0.0%      0.0%
 flops   955 x    64 x   178        1320145059840     100.0%      0.0%      0.0%
 flops   955 x    64 x   183        1357227786240     100.0%      0.0%      0.0%
 flops   991 x    64 x   178        1369909690368     100.0%      0.0%      0.0%
 flops   991 x    64 x   183        1408390299648     100.0%      0.0%      0.0%
 flops   955 x    64 x   195        1446226329600     100.0%      0.0%      0.0%
 flops   242 x    64 x    32        1457412374528     100.0%      0.0%      0.0%
 flops   242 x    32 x    64        1457412374528     100.0%      0.0%      0.0%
 flops    25 x    18 x    25        1457550000000     100.0%      0.0%      0.0%
 flops   991 x    64 x   195        1500743761920     100.0%      0.0%      0.0%
 flops   224 x    32 x   178        1500953051136     100.0%      0.0%      0.0%
 flops   224 x    32 x   183        1543114653696     100.0%      0.0%      0.0%
 flops   224 x    32 x   195        1644302499840     100.0%      0.0%      0.0%
 flops   973 x    32 x   178        1849412640768     100.0%      0.0%      0.0%
 flops   973 x    32 x   183        1901362434048     100.0%      0.0%      0.0%
 flops   973 x    32 x   195        2026041937920     100.0%      0.0%      0.0%
 flops   242 x    64 x    64        2119872544768     100.0%      0.0%      0.0%
 flops    13 x    13 x    32        2138186226176     100.0%      0.0%      0.0%
 flops   224 x    64 x   178        2183204438016     100.0%      0.0%      0.0%
 flops   224 x    64 x   183        2244530405376     100.0%      0.0%      0.0%
 flops   224 x    64 x   195        2391712727040     100.0%      0.0%      0.0%
 flops   973 x    64 x   178        2690054750208     100.0%      0.0%      0.0%
 flops   973 x    64 x   183        2765618085888     100.0%      0.0%      0.0%
 flops   224 x    32 x    32        2782332715008     100.0%      0.0%      0.0%
 flops   955 x    32 x    32        2899517153280     100.0%      0.0%      0.0%
 flops   973 x    64 x   195        2946970091520     100.0%      0.0%      0.0%
 flops   991 x    32 x    32        3008818323456     100.0%      0.0%      0.0%
 flops    13 x    13 x    64        3110089056256     100.0%      0.0%      0.0%
 flops   224 x    32 x    64        4047029403648     100.0%      0.0%      0.0%
 flops   224 x    64 x    32        4047029403648     100.0%      0.0%      0.0%
 flops   955 x    32 x    64        4217479495680     100.0%      0.0%      0.0%
 flops   955 x    64 x    32        4217479495680     100.0%      0.0%      0.0%
 flops    13 x    25 x    32        4231132048000     100.0%      0.0%      0.0%
 flops    25 x    13 x    32        4237994675200     100.0%      0.0%      0.0%
 flops   991 x    32 x    64        4376463015936     100.0%      0.0%      0.0%
 flops   991 x    64 x    32        4376463015936     100.0%      0.0%      0.0%
 flops   224 x    64 x    64        5886588223488     100.0%      0.0%      0.0%
 flops   973 x    32 x    32        5908335476736     100.0%      0.0%      0.0%
 flops   955 x    64 x    64        6134515630080     100.0%      0.0%      0.0%
 flops    13 x    25 x    64        6154373888000     100.0%      0.0%      0.0%
 flops    25 x    13 x    64        6164355891200     100.0%      0.0%      0.0%
 flops   991 x    64 x    64        6365764386816     100.0%      0.0%      0.0%
 flops    25 x    25 x    32        8136964000000     100.0%      0.0%      0.0%
 flops   973 x    64 x    32        8593942511616     100.0%      0.0%      0.0%
 flops   973 x    32 x    64        8593942511616     100.0%      0.0%      0.0%
 flops    25 x    25 x    64       11835584000000     100.0%      0.0%      0.0%
 flops   973 x    64 x    64       12500280016896     100.0%      0.0%      0.0%
 flops    13 x    32 x    13       19051756412416     100.0%      0.0%      0.0%
 flops    25 x    32 x    13       38134521734400     100.0%      0.0%      0.0%
 flops    13 x    32 x    25       38134521734400     100.0%      0.0%      0.0%
 flops    25 x    32 x    25       72553600000000     100.0%      0.0%      0.0%
 flops inhomo. stacks             140092236879616     100.0%      0.0%      0.0%
 flops total                       515.846705E+12     100.0%      0.0%      0.0%
 flops max/rank                      8.956496E+12     100.0%      0.0%      0.0%
 matmuls inhomo. stacks                  14228480     100.0%      0.0%      0.0%
 matmuls total                         9656759780     100.0%      0.0%      0.0%
 number of processed stacks             186576600     100.0%      0.0%      0.0%
 average stack size                                    51.8       0.0       0.0
 marketing flops                   550.258023E+12
 -------------------------------------------------------------------------------
 # multiplications                          52036
 max memory usage/rank               1.557934E+09
 # max total images/rank                        5
 # max 3D layers                                1
 # MPI messages exchanged               474568320
 MPI messages size (bytes):
  total size                        54.955143E+12
  min size                           0.000000E+00
  max size                           1.894792E+06
  average size                     115.800273E+03
 MPI breakdown and total messages size (bytes):
             size <=      128             1895440                        0
       128 < size <=     8192            66603284             545614102528
      8192 < size <=    32768           153536796            3132243515264
     32768 < size <=   131072           199010560           14473513482880
    131072 < size <=  4194304            53522240           36720106400544
   4194304 < size <= 16777216                   0                        0
  16777216 < size                               0                        0
 -------------------------------------------------------------------------------

 *** WARNING in dbcsr/mm/dbcsr_mm.F:268 :: Using a non-square number of ***
 *** MPI ranks might lead to poor performance.                          ***
 *** Used ranks: 80                                                     ***
 *** Suggested: 81 169                                                  ***

 -------------------------------------------------------------------------------
 
 MEMORY| Estimated peak process memory [MiB]                                1508

 -------------------------------------------------------------------------------
 ----                             MULTIGRID INFO                            ----
 -------------------------------------------------------------------------------
 count for grid        1:        1172928          cutoff [a.u.]          600.00
 count for grid        2:        6995914          cutoff [a.u.]          200.00
 count for grid        3:        6176736          cutoff [a.u.]           66.67
 count for grid        4:        8738448          cutoff [a.u.]           22.22
 count for grid        5:        7747643          cutoff [a.u.]            7.41
 total gridlevel count  :       30831669

 -------------------------------------------------------------------------------
 -                                                                             -
 -                         MESSAGE PASSING PERFORMANCE                         -
 -                                                                             -
 -------------------------------------------------------------------------------

 ROUTINE             CALLS      AVE VOLUME [Bytes]
 MP_Group             4237
 MP_Bcast           106172                   4830.
 MP_Allreduce       545987                    294.
 MP_Sync              2709
 MP_Alltoall        268842                5594469.
 MP_SendRecv         16116                   5944.
 MP_ISendRecv      1289754                 133520.
 MP_Wait          11484389
 MP_comm_split        2704
 MP_ISend         13291280                 109753.
 MP_IRecv         13295072                 109643.
 MP_Recv               950                 162816.
 MP_Memory         5828314
 -------------------------------------------------------------------------------


 -------------------------------------------------------------------------------
 -                                                                             -
 -                           R E F E R E N C E S                               -
 -                                                                             -
 -------------------------------------------------------------------------------
 
 CP2K version 7.0 (Development Version), the CP2K developers group (2018).
 CP2K is freely available from https://www.cp2k.org/ .

 Schuett, Ole; Messmer, Peter; Hutter, Juerg; VandeVondele, Joost. 
 Electronic Structure Calculations on Graphics Processing Units, John Wiley & Sons, Ltd, 173-190 (2016). 
 GPU-Accelerated Sparse Matrix-Matrix Multiplication for Linear Scaling Density Functional Theory.
 http://dx.doi.org/10.1002/9781118670712.ch8


 Borstnik, U; VandeVondele, J; Weber, V; Hutter, J. 
 PARALLEL COMPUTING, 40 (5-6), 47-58 (2014). 
 Sparse matrix multiplication: The distributed block-compressed sparse
 row library.
 http://dx.doi.org/10.1016/j.parco.2014.03.012


 Hutter, J; Iannuzzi, M; Schiffmann, F; VandeVondele, J. 
 WILEY INTERDISCIPLINARY REVIEWS-COMPUTATIONAL MOLECULAR SCIENCE, 4 (1), 15-25 (2014). 
 CP2K: atomistic simulations of condensed matter systems.
 http://dx.doi.org/10.1002/wcms.1159


 Grimme, S; Ehrlich, S; Goerigk, L. 
 JOURNAL OF COMPUTATIONAL CHEMISTRY, 32, 1456 (2011). 
 Effect of the damping function in dispersion corrected density functional theory.
 http://dx.doi.org/10.1002/jcc.21759


 Grimme, S; Antony, J; Ehrlich, S; Krieg, H. 
 JOURNAL OF CHEMICAL PHYSICS, 132 (15), 154104 (2010). 
 A consistent and accurate ab initio parametrization of density
 functional dispersion correction (DFT-D) for the 94 elements H-Pu.
 http://dx.doi.org/10.1063/1.3382344


 VandeVondele, J; Hutter, J. 
 JOURNAL OF CHEMICAL PHYSICS, 127 (11), 114105 (2007). 
 Gaussian basis sets for accurate calculations on molecular systems in
 gas and condensed phases.
 http://dx.doi.org/10.1063/1.2770708


 Krack, M. 
 THEORETICAL CHEMISTRY ACCOUNTS, 114 (1-3), 145-152 (2005). 
 Pseudopotentials for H to Kr optimized for gradient-corrected
 exchange-correlation functionals.
 http://dx.doi.org/10.1007/s00214-005-0655-y


 VandeVondele, J; Krack, M; Mohamed, F; Parrinello, M; Chassaing, T;
 Hutter, J. COMPUTER PHYSICS COMMUNICATIONS, 167 (2), 103-128 (2005). 
 QUICKSTEP: Fast and accurate density functional calculations using a
 mixed Gaussian and plane waves approach.
 http://dx.doi.org/10.1016/j.cpc.2004.12.014


 Frigo, M; Johnson, SG. 
 PROCEEDINGS OF THE IEEE, 93 (2), 216-231 (2005). 
 The design and implementation of FFTW3.
 http://dx.doi.org/10.1109/JPROC.2004.840301


 Kolafa, J. 
 JOURNAL OF COMPUTATIONAL CHEMISTRY, 25 (3), 335-342 (2004). 
 Time-reversible always stable predictor-corrector method for molecular dynamics of polarizable molecules.
 http://dx.doi.org/10.1002/jcc.10385


 VandeVondele, J; Hutter, J. 
 JOURNAL OF CHEMICAL PHYSICS, 118 (10), 4365-4369 (2003). 
 An efficient orbital transformation method for electronic structure
 calculations.
 http://dx.doi.org/10.1063/1.1543154


 Hartwigsen, C; Goedecker, S; Hutter, J. 
 PHYSICAL REVIEW B, 58 (7), 3641-3662 (1998). 
 Relativistic separable dual-space Gaussian pseudopotentials from H to Rn.
 http://dx.doi.org/10.1103/PhysRevB.58.3641


 Lippert, G; Hutter, J; Parrinello, M. 
 MOLECULAR PHYSICS, 92 (3), 477-487 (1997). 
 A hybrid Gaussian and plane wave density functional scheme.
 http://dx.doi.org/10.1080/002689797170220


 Perdew, JP; Burke, K; Ernzerhof, M. 
 PHYSICAL REVIEW LETTERS, 77 (18), 3865-3868 (1996). 
 Generalized gradient approximation made simple.
 http://dx.doi.org/10.1103/PhysRevLett.77.3865


 Goedecker, S; Teter, M; Hutter, J. 
 PHYSICAL REVIEW B, 54 (3), 1703-1710 (1996). 
 Separable dual-space Gaussian pseudopotentials.
 http://dx.doi.org/10.1103/PhysRevB.54.1703


 -------------------------------------------------------------------------------
 -                                                                             -
 -                                T I M I N G                                  -
 -                                                                             -
 -------------------------------------------------------------------------------
 SUBROUTINE                       CALLS  ASD         SELF TIME        TOTAL TIME
                                MAXIMUM       AVERAGE  MAXIMUM  AVERAGE  MAXIMUM
 CP2K                                 1  1.0     0.04     0.06 24468.71 24468.76
 cp_geo_opt                           1  2.0     0.00     0.01 24467.52 24467.53
 geoopt_bfgs                          1  3.0     0.04     0.10 24467.52 24467.52
 cp_eval_at                          52  4.0     0.01     0.03 24439.39 24439.43
 qs_forces                           51  5.0     0.02     0.06 24319.18 24319.21
 qs_energies                         52  6.0     0.02     0.05 23389.53 23389.63
 scf_env_do_scf                      52  7.0     0.02     0.08 22703.37 22703.41
 scf_env_do_scf_inner_loop         1728  8.0     0.10     0.16 21410.72 21410.79
 rebuild_ks_matrix                 1779  9.9     0.01     0.01 10608.40 10610.48
 qs_ks_build_kohn_sham_matrix      1779 10.9     0.64     1.24 10608.39 10610.47
 qs_ks_update_qs_env               1786  9.0     0.02     0.04  9685.57  9687.49
 qs_rho_update_rho                 1780  9.0     0.02     0.03  9230.41  9234.98
 calculate_rho_elec                3560 10.0  4616.91  4722.55  9230.40  9234.96
 pw_transfer                      55302 13.4     5.93     7.03  5652.00  5680.09
 fft_wrap_pw1pw2                  51744 14.4     0.61     0.71  5624.17  5652.11
 sum_up_and_integrate               941 11.8    14.12    15.76  5566.44  5567.74
 integrate_v_rspace                1882 12.8  2987.03  3110.59  5552.31  5555.55
 fft_wrap_pw1pw2_600              29976 15.7   330.02   370.89  5216.74  5241.85
 fft3d_ps                         51744 16.4  1544.74  1710.83  4849.83  4903.89
 rs_pw_transfer                   27469 13.0     0.37     0.41  4294.60  4360.09
 density_rs2pw                     3560 11.0     0.26     0.30  4126.69  4218.77
 qs_vxc_create                     1779 11.9     0.06     0.08  3960.19  3961.07
 dbcsr_multiply_generic           52036 13.8     3.41     4.62  3444.26  3449.59
 qs_scf_new_mos                    1728  9.0     0.01     0.03  3305.03  3307.47
 qs_scf_loop_do_ot                 1728 10.0     0.08     0.17  3305.02  3307.46
 mp_alltoall_z22v                 51744 18.4  2869.50  3194.55  2869.50  3194.55
 mp_waitall_1                   ******* 16.8  3039.38  3148.12  3039.38  3148.12
 ot_scf_mini                       1728 11.0     0.33     0.74  3046.14  3047.75
 xc_vxc_pw_create                   941 12.8   196.22   221.05  2867.77  2868.23
 multiply_cannon                  52036 14.8    16.54    17.87  2643.76  2694.29
 xc_rho_set_and_dset_create        1779 13.9    31.06    33.12  2185.72  2220.35
 potential_pw2rs                   1882 13.8     1.48     1.64  2034.30  2037.68
 mp_waitany                      980584 14.9  1889.58  2018.80  1889.58  2018.80
 x_to_yz                          22600 18.1   245.98   283.53  1884.67  2000.14
 rs_pw_transfer_RS2PW_600          3664 13.0   719.31   801.58  1841.60  1910.13
 multiply_cannon_metrocomm3     1040720 15.8     2.79     2.94  1540.91  1723.82
 yz_to_x                          18260 16.9   149.11   157.32  1377.27  1536.33
 ot_mini                           1728 12.0     0.01     0.04  1509.64  1511.54
 init_scf_loop                       58  8.0     0.01     0.03  1290.95  1290.98
 rs_pw_transfer_PW2RS_600          2037 15.5   455.65   494.03  1145.37  1172.02
 xc_exc_calc                        838 13.0     4.09     4.58  1092.37  1092.85
 qs_ot_get_derivative              1780 13.0     0.02     0.03   962.26   964.21
 qs_ks_update_qs_env_forces          51  6.0     0.00     0.00   940.90   941.02
 multiply_cannon_metrocomm1     1040720 15.8     3.20     3.44   650.29   857.75
 mp_alltoall_d11v                 50242 15.7   679.26   764.45   679.26   764.45
 rs_distribute_matrix              5544 12.0     6.74    13.33   647.45   729.82
 qs_ot_get_p                       3572 11.9     0.05     0.13   711.69   718.59
 prepare_preconditioner              58  9.0     0.00     0.00   712.16   712.28
 make_preconditioner                116 10.0     0.01     0.03   655.68   655.76
 cp_fm_syevd                       2704 14.4     0.02     0.03   611.55   613.10
 make_full_all                      116 11.0     0.05     0.13   601.17   601.41
 cp_fm_redistribute_end            2704 15.4   256.42   585.51   259.77   588.23
 apply_preconditioner_dbcsr        1896 14.0     0.00     0.02   557.94   559.12
 apply_all                         1896 15.0     0.22     0.32   557.94   559.12
 cp_fm_syevd_base                  2704 15.2   326.07   556.95   326.07   556.95
 ot_new_cg_direction                890 13.0     0.03     0.05   535.60   535.69
 mp_sum_d                         85068 15.0   403.82   508.29   403.82   508.29
 -------------------------------------------------------------------------------

 The number of warnings for this run is : 1
 
 -------------------------------------------------------------------------------
  **** **** ******  **  PROGRAM ENDED AT                 2019-07-08 08:32:01.939
 ***** ** ***  *** **   PROGRAM RAN ON            blg9233.int.ets1.calculquebec.
 **    ****   ******    PROGRAM RAN BY                                       rzk
 ***** **    ** ** **   PROGRAM PROCESS ID                                257059
  **** **  *******  **  PROGRAM STOPPED IN /lustre04/scratch/rzk/rzk/GaN-carbene
                                           /443-adatoms-both-2x2/09-BondBreaking
                                           -CH/01-0401-CH-to-NSur
