     212
 i =        1, E =     -8504.7140648429
  N         0.0775240154        1.9820167935        2.4856305464
 Ga         0.0608790536        0.0172816376        2.8350273669
  N         0.0812746393       -0.0277706073        5.0150789214
 Ga         0.0809744687        1.7985384528        5.8005614209
  N         0.0799017713        1.8139197597        7.7990355116
 Ga         0.0773513764       -0.0312469623        8.4439698662
  N         0.0790644587       -0.0315527328       10.4169040489
 Ga         0.0790431287        1.8082064868       11.0733355258
  N         0.0796548822        1.7898990386       13.0648740353
 Ga         0.0793314298       -0.0294023696       13.8801612530
  N         0.0791607173       -0.0259566373       16.0700300918
 Ga         0.0794135789        2.0240126910       16.4974843577
 Ga         0.0476657384        3.6829095604        1.3624442966
  N        -1.4031151398        4.5462491354        2.5220005899
 Ga        -1.6026756405        2.7030862154        3.2817495665
  N        -1.5294156658        2.7535629170        5.2572270404
 Ga        -1.5588595425        4.6185469339        5.8110591443
  N        -1.5396829214        4.6182038393        7.8023990663
 Ga        -1.5190806185        2.7570079813        8.4376310126
  N        -1.5175750507        2.7606990054       10.4298930084
 Ga        -1.5433668012        4.6187675475       11.0715488553
  N        -1.5592165927        4.6302795351       13.0608266524
 Ga        -1.5183815872        2.7613340832       13.6235404656
  N        -1.5495118631        2.7456488452       15.5785462311
 Ga        -1.3502918055        4.5070045000       16.4974322656
  N         0.0794796490        3.6779688958       17.6442279767
  N        -3.1382512883        7.5115859303        2.5121866498
 Ga        -3.1003155595        5.5082981479        2.8689363439
  N        -3.1380132322        5.5410207891        5.0257127098
 Ga        -3.1430252566        7.3592307572        5.8082100478
  N        -3.1395265818        7.3880736639        7.7949767388
 Ga        -3.1378806559        5.5397140184        8.4492921514
  N        -3.1377403630        5.5410151580       10.4192729277
 Ga        -3.1384997617        7.3807148121       11.0732405516
  N        -3.1364103135        7.3620057014       13.0620755065
 Ga        -3.1281128038        5.5446206905       13.8657202347
  N        -3.1338511008        5.5392795171       16.0656354653
 Ga        -3.1360162722        7.5938399802       16.4933879513
 Ga        -3.1354606120        9.2645580222        1.4598821501
  N        -4.6484414806       10.1183115825        2.4990283351
 Ga        -4.8054272025        8.3005040309        3.3053175776
  N        -4.7631750173        8.3150803134        5.2483664693
 Ga        -4.7774233799       10.2033733877        5.7990563531
  N        -4.7548781824       10.1840912999        7.7922005463
 Ga        -4.7361169344        8.3336256719        8.4443015954
  N        -4.7347122271        8.3320444105       10.4308067613
 Ga        -4.7610882724       10.1912619163       11.0746462661
  N        -4.7759533654       10.2005598917       13.0662421254
 Ga        -4.7333100704        8.3316510241       13.6263080174
  N        -4.7588601320        8.3125819539       15.5846220732
 Ga        -4.5853117430       10.0902864916       16.4925722995
  N        -3.1439617869        9.2598875178       17.6303211581
  N         3.2854285458        1.8306460428        2.6169927983
 Ga         3.2869551593        0.0875214449        3.2863996939
  N         3.2954729951       -0.0350523013        5.2495551140
 Ga         3.2874328717        1.8285966239        5.8754182419
  N         3.2954832349        1.8255134717        7.8498827907
 Ga         3.2923602378       -0.0410980182        8.4408634050
  N         3.2942251493       -0.0431654158       10.4310168190
 Ga         3.2954415715        1.8268180629       11.0286480139
  N         3.2972586697        1.8263530649       12.9973284322
 Ga         3.2962529260       -0.0426222961       13.6270325409
  N         3.3001917338       -0.0111854105       15.5858637703
 Ga         3.2931104700        1.8248973989       15.8652563178
  N         1.5631310959        4.5462196655        2.5128107558
 Ga         1.7563784265        2.7164744694        3.2677507932
  N         1.6878735510        2.7539193341        5.2498533664
 Ga         1.7203757369        4.6179902324        5.8108951528
  N         1.6976887627        4.6170957962        7.8033371731
 Ga         1.6764007896        2.7581062202        8.4413631146
  N         1.6767009173        2.7604452979       10.4323109860
 Ga         1.7026929544        4.6195352798       11.0714467021
  N         1.7188393820        4.6305456124       13.0608978067
 Ga         1.6771962083        2.7618667175       13.6242690902
  N         1.7090291599        2.7454094549       15.5792853280
 Ga         1.5100111876        4.5071372486       16.4978634354
  N         0.0800716077        7.3799202558        2.6999868019
 Ga         0.0890937280        5.5366140451        3.3416763433
  N         0.0797470756        5.5525361038        5.2755831769
 Ga         0.0874764729        7.3946594859        5.9086246054
  N         0.0800844525        7.3977869952        7.8643355813
 Ga         0.0796043715        5.5242153120        8.4465996311
  N         0.0792557895        5.5275221842       10.4332471608
 Ga         0.0802320901        7.3973076138       11.0300183813
  N         0.0795923187        7.3983875599       12.9973407444
 Ga         0.0798177478        5.5279986482       13.6250338486
  N         0.0797417922        5.5614198480       15.5819511400
 Ga         0.0802249474        7.3982582945       15.8602047937
  N        -1.6317212846       10.1097818937        2.5244868378
 Ga        -1.4944442259        8.3002864264        3.3354398652
  N        -1.5183135510        8.3174805470        5.2622205691
 Ga        -1.5008779486       10.2056391718        5.8114056515
  N        -1.5210332180       10.1852781458        7.7997837078
 Ga        -1.5412828674        8.3317155000        8.4479798850
  N        -1.5409679478        8.3315063013       10.4329713108
 Ga        -1.5148831753       10.1915148358       11.0723955466
  N        -1.4975806072       10.1999766429       13.0622887284
 Ga        -1.5393787855        8.3319167079       13.6261708408
  N        -1.5134931201        8.3175103109       15.5846913966
 Ga        -1.6978760391       10.0841633582       16.4936944493
  N         6.5096258704        1.9493775507        2.5390281274
 Ga         6.5286161779       -0.0322843617        2.8680923881
  N         6.5081287961       -0.0307625157        5.0253595770
 Ga         6.5098989751        1.7960282442        5.8066591065
  N         6.5109430457        1.8160688490        7.8006596531
 Ga         6.5135023556       -0.0310901083        8.4464297904
  N         6.5120376686       -0.0306210868       10.4184159974
 Ga         6.5124614707        1.8095024800       11.0702422436
  N         6.5120889708        1.7877137085       13.0655592174
 Ga         6.5125518932       -0.0389965834       13.8654472204
  N         6.5124837360       -0.0288309467       16.0671282382
 Ga         6.5124357546        1.9845699498       16.4493019490
 Ga         6.5131872192        3.6639823291        1.5014999391
  N         5.0059990922        4.5581987161        2.5127000729
 Ga         4.7947959813        2.6990816798        3.2959568827
  N         4.9018758633        2.7556314600        5.2569323800
 Ga         4.8734912420        4.6266377406        5.8057929845
  N         4.8976212473        4.6190284099        7.7980887286
 Ga         4.9121744605        2.7602670961        8.4412014938
  N         4.9150252247        2.7624263268       10.4330017958
 Ga         4.8888683804        4.6216468929       11.0710166708
  N         4.8701061591        4.6320659757       13.0657619941
 Ga         4.9137477463        2.7609804161       13.6128435574
  N         4.8906088043        2.7451765633       15.5802049235
 Ga         5.0371388138        4.5332247301       16.4483948537
  N         6.5118706112        3.6867941990       17.5811836523
  N         3.3009978785        7.4986416224        2.4963429332
  N         3.2964216032        5.5382194207        5.0295150790
 Ga         3.2988280644        7.3635169677        5.7945460039
  N         3.2969783849        7.3891914183        7.7888153558
 Ga         3.2964938382        5.5421675666        8.4463968540
  N         3.2966160061        5.5415617995       10.4180579918
 Ga         3.2980429946        7.3813356760       11.0719110357
  N         3.2959604511        7.3621096635       13.0611907125
 Ga         3.2876116009        5.5454040093       13.8658795534
  N         3.2934417179        5.5398368489       16.0659121287
 Ga         3.2958046495        7.5960528372       16.4950913411
 Ga         3.3030754003        9.2610699087        1.2854182487
  N         1.7868408200       10.1168870773        2.5018742632
 Ga         1.6867730499        8.3133636226        3.2869944966
  N         1.6751357063        8.3168016163        5.2352311111
 Ga         1.6619230436       10.1992646808        5.7982801041
  N         1.6785288257       10.1840855512        7.7929659732
 Ga         1.7018903269        8.3327485422        8.4459981833
  N         1.7002097015        8.3320304128       10.4320928101
 Ga         1.6751856134       10.1918502043       11.0713665050
  N         1.6573692421       10.2000128910       13.0614866846
 Ga         1.6990564630        8.3318947700       13.6255758871
  N         1.6730448477        8.3175413787       15.5836833150
 Ga         1.8595779930       10.0831579737       16.4950348316
  N         3.3032083987        9.2600773728       17.6337099754
  N         9.7361765144        1.8241928672        2.6277891564
 Ga         9.7307569188        0.0575843596        3.2564270867
  N         9.7256434268       -0.0366316055        5.2386412247
 Ga         9.7330023492        1.8194530489        5.8697666020
  N         9.7268868572        1.8247195870        7.8469350327
 Ga         9.7305569539       -0.0428040603        8.4334556948
  N         9.7290783598       -0.0435115919       10.4267404212
 Ga         9.7285319120        1.8259564227       11.0256668606
  N         9.7265854275        1.8262132804       12.9949225108
 Ga         9.7279780266       -0.0423339225       13.6262129328
  N         9.7239597383       -0.0107417227       15.5845659848
 Ga         9.7312490417        1.8247210342       15.8651672189
  N         8.0150276848        4.5599160414        2.5194536882
 Ga         8.2272784845        2.6915617794        3.2986575009
  N         8.1184367564        2.7552486606        5.2590963513
 Ga         8.1458367476        4.6255431611        5.8039749867
  N         8.1263833524        4.6199822846        7.7960792638
 Ga         8.1116493256        2.7597881471        8.4379799382
  N         8.1087221927        2.7625312285       10.4308405989
 Ga         8.1343218105        4.6206358756       11.0712422069
  N         8.1536328570        4.6318168054       13.0656609243
 Ga         8.1107415747        2.7606467873       13.6123304040
  N         8.1338307789        2.7452408116       15.5796282278
 Ga         7.9867755015        4.5326486468       16.4482845177
  N         6.5040064509        7.3993750676        2.6448044108
 Ga         6.5041698419        5.6034154721        3.3135545955
  N         6.5105976535        5.5633275914        5.2551194441
 Ga         6.5037982771        7.4020028653        5.9142465123
  N         6.5108440956        7.3973457382        7.8669172485
 Ga         6.5117632121        5.5281638050        8.4453055823
  N         6.5120144145        5.5289309748       10.4332986886
 Ga         6.5112224500        7.3985053125       11.0277916015
  N         6.5118451549        7.3970519125       12.9967684653
 Ga         6.5119567906        5.5292535087       13.6136771437
  N         6.5123137785        5.5575077530       15.5827645789
 Ga         6.5120587894        7.4017106183       15.8656619373
  N         4.8081004262       10.1207840245        2.4831524533
 Ga         4.9261406622        8.3100493507        3.2760470173
  N         4.9206200710        8.3150789556        5.2356686352
 Ga         4.9308164810       10.1998708194        5.7864107599
  N         4.9140683054       10.1842020075        7.7859653036
 Ga         4.8917300213        8.3352603856        8.4401387562
  N         4.8938068422        8.3321337379       10.4284692849
 Ga         4.9186356230       10.1908146186       11.0729641043
  N         4.9352512678       10.2005307512       13.0649822037
 Ga         4.8924067496        8.3320009751       13.6261642087
  N         4.9191428664        8.3126259958       15.5839711920
 Ga         4.7425223965       10.0893501563       16.4941684366
  O         0.0103203009        4.1043042334       -0.4313153714
  H        -0.1943204308        5.8460975283       -0.3638545859
  C         1.1232354825        3.6380169965       -1.2189572701
  H         2.0920730075        3.9417803062       -0.7901226522
  H         1.1181294538        2.5418494001       -1.3251230717
  H         1.0308197587        4.0808089556       -2.2205517499
 Ga         3.2540716876        5.5266272517        2.8615863308
  O        -0.1453709851        6.8256525176       -0.1543208719
  H         0.0346606235        7.3173509842        1.6660193590
  C         0.8211683511        7.4845966914       -0.9536028170
  H         0.9829722740        8.5353165229       -0.6831070995
  H         6.5058638539        7.3876420226        1.6196753659
  H         0.9342332753        7.1377908908       -2.0137099623
     212
 i =        2, E =     -8504.7263557445
  N         0.0777846087        1.9775226518        2.4844513853
 Ga         0.0589183909        0.0108276243        2.8374480726
  N         0.0804928377       -0.0246737613        5.0120173693
 Ga         0.0806365245        1.8014378004        5.8047183336
  N         0.0800110219        1.8141230808        7.7982767864
 Ga         0.0776487167       -0.0305785259        8.4466528663
  N         0.0791910182       -0.0320622462       10.4155679291
 Ga         0.0791831045        1.8081889694       11.0748933688
  N         0.0796456414        1.7897119679       13.0621166133
 Ga         0.0792654503       -0.0277671720       13.8820517968
  N         0.0794460536       -0.0259005565       16.0699952379
 Ga         0.0795040424        2.0294811214       16.5011619394
 Ga         0.0466116954        3.6803255968        1.3690563297
  N        -1.4066733607        4.5502869358        2.5188318860
 Ga        -1.6032284242        2.7034315487        3.2810428034
  N        -1.5298162170        2.7540087390        5.2535969974
 Ga        -1.5565663060        4.6170967156        5.8163018349
  N        -1.5391750890        4.6181833612        7.8022658597
 Ga        -1.5193479200        2.7567849482        8.4409690802
  N        -1.5169706050        2.7610975142       10.4282323423
 Ga        -1.5435740539        4.6188914751       11.0742008629
  N        -1.5605265245        4.6307740674       13.0600714279
 Ga        -1.5190197431        2.7606407096       13.6251391479
  N        -1.5474002582        2.7423617697       15.5768940487
 Ga        -1.3518586650        4.5056826856       16.4996746790
  N         0.0795811807        3.6825951369       17.6462040690
  N        -3.1430351036        7.5139002756        2.5054130707
 Ga        -3.1042013659        5.5104062564        2.8765131398
  N        -3.1353277907        5.5388158884        5.0245005261
 Ga        -3.1406390898        7.3557862326        5.8117824634
  N        -3.1404136962        7.3884191047        7.7930238991
 Ga        -3.1374124507        5.5395442767        8.4513025421
  N        -3.1374852955        5.5416094539       10.4168332829
 Ga        -3.1371137723        7.3798301368       11.0776053041
  N        -3.1365295977        7.3601084926       13.0632552797
 Ga        -3.1316561456        5.5412245611       13.8737742132
  N        -3.1388415120        5.5360482182       16.0633833294
 Ga        -3.1377403804        7.5875260466       16.4890939250
 Ga        -3.1245317331        9.2757665844        1.4135087943
  N        -4.6483056492       10.1128864681        2.4948933747
 Ga        -4.7694745847        8.3213586156        3.3157981207
  N        -4.7666519127        8.3121136228        5.2421530637
 Ga        -4.7788111557       10.2068548574        5.8014927927
  N        -4.7552566038       10.1832092982        7.7896845148
 Ga        -4.7334377856        8.3351819700        8.4532905221
  N        -4.7330327880        8.3330828516       10.4334053030
 Ga        -4.7607906479       10.1929650909       11.0783861905
  N        -4.7764970011       10.2007044091       13.0662102965
 Ga        -4.7334429379        8.3313795845       13.6277097743
  N        -4.7597765556        8.3156523461       15.5846953111
 Ga        -4.5867583560       10.0915293663       16.4897438725
  N        -3.1418012327        9.2591676801       17.6265611156
  N         3.2848674885        1.8305791923        2.6141934604
 Ga         3.2894996116        0.0847711093        3.2806983565
  N         3.2939201091       -0.0365690926        5.2439510949
 Ga         3.2883548136        1.8280321352        5.8755591083
  N         3.2951537102        1.8257591146        7.8468272226
 Ga         3.2935150217       -0.0408758494        8.4425770248
  N         3.2940650134       -0.0440526928       10.4284199316
 Ga         3.2949588731        1.8264451542       11.0288781663
  N         3.2962570780        1.8250553999       12.9922426829
 Ga         3.2963525514       -0.0420080637       13.6278885391
  N         3.2974051428       -0.0124605215       15.5856474842
 Ga         3.2939272407        1.8259113789       15.8649727969
  N         1.5651749378        4.5473132124        2.5100288118
 Ga         1.7569836081        2.7153958487        3.2688239777
  N         1.6881923044        2.7539961077        5.2475857294
 Ga         1.7183134279        4.6165895492        5.8160457341
  N         1.6974152096        4.6169583995        7.8029711142
 Ga         1.6768179058        2.7580138019        8.4446007239
  N         1.6761807970        2.7609355038       10.4305031580
 Ga         1.7030371025        4.6196222908       11.0741427690
  N         1.7201216225        4.6310800835       13.0602017925
 Ga         1.6778877346        2.7611582462       13.6258136128
  N         1.7069591609        2.7421845865       15.5775708618
 Ga         1.5116130040        4.5058536456       16.5000156353
  N         0.0792375292        7.3812252894        2.7109434027
 Ga         0.0888467052        5.5335980785        3.3440178396
  N         0.0798287295        5.5529573985        5.2737947378
 Ga         0.0869646418        7.3956110121        5.9091148543
  N         0.0800874728        7.3974975890        7.8616244594
 Ga         0.0798604960        5.5246928494        8.4501389257
  N         0.0793355039        5.5276190820       10.4324657016
 Ga         0.0801924715        7.3975378642       11.0321584825
  N         0.0796761892        7.3990146899       12.9969541798
 Ga         0.0797920861        5.5272302829       13.6270222927
  N         0.0797411601        5.5616710101       15.5817488335
 Ga         0.0803763335        7.3970211846       15.8624751266
  N        -1.6304469838       10.1104394433        2.5223198235
 Ga        -1.5006806878        8.3063345622        3.3328785302
  N        -1.5207907420        8.3161669404        5.2583222398
 Ga        -1.5013532682       10.2052837908        5.8126558011
  N        -1.5207079060       10.1853706198        7.7977716363
 Ga        -1.5405679562        8.3326403013        8.4500320149
  N        -1.5412912605        8.3315721776       10.4313408770
 Ga        -1.5148471111       10.1918019875       11.0748597010
  N        -1.4964504230       10.2005721648       13.0623556427
 Ga        -1.5399958263        8.3321677580       13.6275225108
  N        -1.5136590876        8.3178579319       15.5857767534
 Ga        -1.6938709541       10.0886897524       16.4896036722
  N         6.5093748589        1.9484786795        2.5377517403
 Ga         6.5284969474       -0.0334389203        2.8758290147
  N         6.5086314926       -0.0304479401        5.0294259886
 Ga         6.5100883563        1.7968534053        5.8083763149
  N         6.5108377449        1.8157704729        7.7986120756
 Ga         6.5134803334       -0.0310667971        8.4488244556
  N         6.5119952376       -0.0314353075       10.4169660800
 Ga         6.5123778450        1.8092419718       11.0707874692
  N         6.5121325736        1.7888767012       13.0593606897
 Ga         6.5126681466       -0.0332991008       13.8707312981
  N         6.5122652971       -0.0228467061       16.0661109171
 Ga         6.5123872106        2.0066649099       16.4673007547
 Ga         6.5134034048        3.6471371721        1.4644378220
  N         5.0121030242        4.5597063466        2.5062011225
 Ga         4.7969709034        2.6967378970        3.2918465184
  N         4.9026409965        2.7582019205        5.2518045331
 Ga         4.8693218472        4.6256921531        5.8100953005
  N         4.8981748014        4.6197229904        7.7960833694
 Ga         4.9125226969        2.7593120022        8.4432695012
  N         4.9147019544        2.7625852169       10.4299711129
 Ga         4.8872641207        4.6208820572       11.0739426174
  N         4.8706890985        4.6316894385       13.0614775957
 Ga         4.9129838311        2.7601207243       13.6155849550
  N         4.8868457951        2.7417832043       15.5728029785
 Ga         5.0542567480        4.5229551295       16.4660631748
  N         6.5119893863        3.6890451846       17.5954058490
  N         3.3040993642        7.4963862696        2.5011372316
  N         3.2939605139        5.5352720649        5.0287797209
 Ga         3.2964470270        7.3596147135        5.7975854521
  N         3.2977301941        7.3893039313        7.7861749982
 Ga         3.2960275943        5.5419874605        8.4480777517
  N         3.2963867061        5.5420893456       10.4152164589
 Ga         3.2966206015        7.3802330407       11.0763388723
  N         3.2960924066        7.3603668022       13.0624027747
 Ga         3.2911678464        5.5420862453       13.8740370076
  N         3.2985078028        5.5362432216       16.0637362516
 Ga         3.2973210779        7.5890266727       16.4907661450
 Ga         3.2785781709        9.2489211809        1.2382706688
  N         1.7852893458       10.1137027455        2.4957891014
 Ga         1.6889916825        8.3171210958        3.2893229381
  N         1.6769750566        8.3158570391        5.2345382552
 Ga         1.6631131617       10.1995517475        5.7999221756
  N         1.6781787704       10.1839856116        7.7910087755
 Ga         1.7013542784        8.3334041930        8.4480506165
  N         1.7005556137        8.3319973832       10.4304258747
 Ga         1.6750204624       10.1920782836       11.0738305163
  N         1.6563635486       10.2005804473       13.0614786467
 Ga         1.6997059151        8.3322333059       13.6272015552
  N         1.6735217890        8.3180423585       15.5850815201
 Ga         1.8550575985       10.0878438268       16.4909738069
  N         3.3011779816        9.2592694913       17.6286518953
  N         9.7363814160        1.8247657228        2.6254133059
 Ga         9.7281656950        0.0534303455        3.2455524775
  N         9.7274803717       -0.0380982109        5.2295528538
 Ga         9.7322772399        1.8185859191        5.8691715991
  N         9.7271859287        1.8249679082        7.8434236813
 Ga         9.7291707750       -0.0425063875        8.4357328009
  N         9.7292293048       -0.0443951475       10.4245337434
 Ga         9.7290214440        1.8256322184       11.0261102592
  N         9.7276264827        1.8247989267       12.9900536165
 Ga         9.7279032384       -0.0418454844       13.6273443151
  N         9.7267224478       -0.0123874571       15.5847761729
 Ga         9.7305306139        1.8255276909       15.8648197856
  N         8.0087619982        4.5632937459        2.5126008992
 Ga         8.2246515583        2.6903256109        3.2937735619
  N         8.1178465599        2.7580676809        5.2533518326
 Ga         8.1499637263        4.6247562716        5.8083661768
  N         8.1256633680        4.6207385771        7.7943385855
 Ga         8.1111440330        2.7586973705        8.4402011073
  N         8.1090150779        2.7626216925       10.4279538143
 Ga         8.1358396260        4.6198863921       11.0741353813
  N         8.1531161649        4.6313840651       13.0613319082
 Ga         8.1115223810        2.7598193740       13.6151740304
  N         8.1377105931        2.7417966851       15.5724186507
 Ga         7.9698741419        4.5224915823       16.4659367831
  N         6.5035145746        7.3992054556        2.6702085736
 Ga         6.5041532503        5.5630581148        3.3275690408
  N         6.5106285639        5.5671746959        5.2507778321
 Ga         6.5041867859        7.4021893793        5.9249141952
  N         6.5109046581        7.3972503747        7.8681992148
 Ga         6.5115508528        5.5249973780        8.4546449887
  N         6.5119669658        5.5282577577       10.4355191503
 Ga         6.5112963888        7.3992799408       11.0305420172
  N         6.5117613845        7.3987904437       12.9944120701
 Ga         6.5120261089        5.5295164497       13.6170171610
  N         6.5123720453        5.5624907578       15.5759794051
 Ga         6.5118891629        7.3995452881       15.8661812560
  N         4.8029879645       10.1111604722        2.4676360544
 Ga         4.8906938923        8.3306224114        3.2924780099
  N         4.9245779257        8.3133407067        5.2323342603
 Ga         4.9315623182       10.2042779436        5.7910125456
  N         4.9144914814       10.1834259457        7.7848355976
 Ga         4.8888857864        8.3363660632        8.4490387710
  N         4.8920794694        8.3330622149       10.4310723620
 Ga         4.9185306186       10.1925287503       11.0766779642
  N         4.9357346402       10.2006484474       13.0648936426
 Ga         4.8925226225        8.3318143578       13.6278854720
  N         4.9195970034        8.3157854700       15.5844895483
 Ga         4.7445350144       10.0908662106       16.4912980323
  O         0.0104582232        4.1240703345       -0.4308667191
  H        -0.1586713749        5.8462643631       -0.3970489718
  C         1.1214783518        3.6487884033       -1.2210005891
  H         2.0913776790        3.9434945578       -0.7875422738
  H         1.1098932926        2.5503081589       -1.3171978959
  H         1.0334944040        4.0798624590       -2.2278579832
 Ga         3.2570873441        5.5255617732        2.8693372759
  O        -0.1195639060        6.8369793734       -0.1747307525
  H         0.0394444153        7.3252413748        1.6814517620
  C         0.7735434942        7.4974027854       -0.9594207082
  H         0.9651136135        8.5296342376       -0.6729827686
  H         6.5087840579        7.3900484753        1.6348312055
  H         0.9722689959        7.1141355053       -1.9854817392
     212
 i =        3, E =     -8504.7309048331
  N         0.0767322081        1.9753835214        2.4821897167
 Ga         0.0560363746        0.0009598932        2.8335456670
  N         0.0795078254       -0.0236171123        5.0104612070
 Ga         0.0803496354        1.8027050591        5.8055319588
  N         0.0799950109        1.8144490805        7.7977127259
 Ga         0.0778369915       -0.0299794329        8.4487029494
  N         0.0793459756       -0.0319864902       10.4159717913
 Ga         0.0792885271        1.8086897476       11.0756799763
  N         0.0796821155        1.7889682752       13.0609149662
 Ga         0.0794332632       -0.0269827123       13.8835218952
  N         0.0796429956       -0.0284115972       16.0704549553
 Ga         0.0797609162        2.0282024720       16.5010523592
 Ga         0.0438428786        3.6809800512        1.3730971354
  N        -1.4093794543        4.5522913788        2.5188013374
 Ga        -1.6063964763        2.7017592594        3.2808925127
  N        -1.5295935997        2.7544354849        5.2523044342
 Ga        -1.5552715315        4.6159040893        5.8184967947
  N        -1.5385867784        4.6180004664        7.8024592098
 Ga        -1.5204391391        2.7561365541        8.4422719329
  N        -1.5168577524        2.7614282760       10.4273876556
 Ga        -1.5436690310        4.6190862646       11.0765709984
  N        -1.5611238692        4.6307696944       13.0615071494
 Ga        -1.5182168024        2.7601648989       13.6263439863
  N        -1.5442868178        2.7413713802       15.5786471885
 Ga        -1.3566562445        4.5088206578       16.4985153679
  N         0.0795917880        3.6858717482       17.6367079651
  N        -3.1415683909        7.5156489164        2.5067751525
 Ga        -3.1093125631        5.5151643340        2.8770451894
  N        -3.1344029710        5.5374188866        5.0243196474
 Ga        -3.1381223298        7.3550684724        5.8157210734
  N        -3.1393170750        7.3877910239        7.7945731200
 Ga        -3.1366315058        5.5393838086        8.4535735803
  N        -3.1371371974        5.5417859727       10.4168255742
 Ga        -3.1359005171        7.3790039945       11.0811311188
  N        -3.1362824585        7.3592128473       13.0656739591