     212
 i =        1, E =     -8504.6879970674
  N         0.0797661173        1.9770777962        2.4897805374
 Ga         0.0721099716        0.0175941161        2.8383585537
  N         0.0909833920       -0.0220805428        5.0184549215
 Ga         0.0823488715        1.8008933862        5.8004325917
  N         0.0806500903        1.8142334263        7.8019062270
 Ga         0.0782307705       -0.0303957978        8.4438596685
  N         0.0795585531       -0.0315054972       10.4189239964
 Ga         0.0791771182        1.8080297104       11.0713300707
  N         0.0795516657        1.7901273188       13.0658423400
 Ga         0.0794062001       -0.0296370668       13.8776073163
  N         0.0795354357       -0.0265593870       16.0725363984
 Ga         0.0794444702        2.0202044727       16.4938361428
 Ga         0.0509701849        3.6803626891        1.3654003450
  N        -1.4018768950        4.5439919181        2.5270086748
 Ga        -1.6025687473        2.6985504117        3.2802594630
  N        -1.5287177887        2.7535635146        5.2594959188
 Ga        -1.5575096245        4.6180899977        5.8089275985
  N        -1.5406729389        4.6189864393        7.8044474020
 Ga        -1.5185691046        2.7573348916        8.4361245643
  N        -1.5173536055        2.7610414546       10.4319083179
 Ga        -1.5438052504        4.6190205598       11.0696514681
  N        -1.5590432081        4.6300951492       13.0617678449
 Ga        -1.5177800878        2.7616041482       13.6227143661
  N        -1.5479432738        2.7453034149       15.5804178499
 Ga        -1.3550605119        4.5087359106       16.4937025827
  N         0.0795911823        3.6795333195       17.6341064571
  N        -3.1414078583        7.5193939018        2.5264312158
 Ga        -3.1013251756        5.5078820024        2.8545087527
  N        -3.1390899254        5.5419140920        5.0228587831
 Ga        -3.1431111631        7.3605348539        5.8107376412
  N        -3.1393576081        7.3868598663        7.8004762645
 Ga        -3.1377377504        5.5395164624        8.4504045780
  N        -3.1378887459        5.5411990160       10.4216709312
 Ga        -3.1390510277        7.3806539742       11.0711021901
  N        -3.1365364698        7.3622446564       13.0623566157
 Ga        -3.1286088692        5.5447491967       13.8629272980
  N        -3.1347858147        5.5402271920       16.0681733722
 Ga        -3.1364994784        7.5935562624       16.4916217053
 Ga        -3.1396251797        9.2656934258        1.5031163281
  N        -4.6461438868       10.1192082022        2.5071018641
 Ga        -4.8668627278        8.2778886874        3.2758484451
  N        -4.7506181567        8.3221327641        5.2356047515
 Ga        -4.7761201602       10.2028586879        5.8017570486
  N        -4.7545434447       10.1844199223        7.7974558148
 Ga        -4.7368151822        8.3331794803        8.4418492126
  N        -4.7347376259        8.3318223003       10.4313825066
 Ga        -4.7611887134       10.1907066771       11.0725386857
  N        -4.7757704815       10.2002989572       13.0667720815
 Ga        -4.7331176706        8.3316386378       13.6251447280
  N        -4.7592943529        8.3124063310       15.5851942730
 Ga        -4.5860991235       10.0900406964       16.4906289328
  N        -3.1432348884        9.2607174609       17.6262125823
  N         3.2842039268        1.8322618682        2.6186196561
 Ga         3.2853859317        0.0916187685        3.2879820461
  N         3.2947812589       -0.0348354495        5.2496927060
 Ga         3.2879344050        1.8287689553        5.8736799626
  N         3.2958264237        1.8253362081        7.8506983965
 Ga         3.2919886645       -0.0404324537        8.4404209822
  N         3.2938855619       -0.0428405626       10.4330948001
 Ga         3.2954051751        1.8269239925       11.0275764284
  N         3.2966918592        1.8263541567       12.9995963605
 Ga         3.2961847683       -0.0432472222       13.6261948967
  N         3.2995637154       -0.0108616617       15.5872791826
 Ga         3.2929156669        1.8251832999       15.8633915079
  N         1.5678227634        4.5472746809        2.5164607765
 Ga         1.7539777612        2.7176369071        3.2663929278
  N         1.6895517782        2.7538885030        5.2501136385
 Ga         1.7193132272        4.6168177452        5.8103249724
  N         1.6980552603        4.6166993548        7.8054817746
 Ga         1.6769799238        2.7581351363        8.4395037743
  N         1.6768562730        2.7602936670       10.4335264667
 Ga         1.7028724895        4.6194932859       11.0693319168
  N         1.7184537105        4.6303358701       13.0619385533
 Ga         1.6764982264        2.7620275236       13.6235231820
  N         1.7074784748        2.7452136992       15.5812299674
 Ga         1.5148150245        4.5088750861       16.4941508011
  N         0.1122110928        7.3867286326        2.7056797093
 Ga         0.0907013273        5.5422919097        3.3367230783
  N         0.0802633193        5.5520611366        5.2755648421
 Ga         0.0954201824        7.3980448100        5.9033500749
  N         0.0781102303        7.3972874606        7.8656798408
 Ga         0.0799107876        5.5239005947        8.4449151574
  N         0.0790630308        5.5272513928       10.4349995821
 Ga         0.0798749119        7.3971488712       11.0285440513
  N         0.0796532647        7.3979025306       12.9994477761
 Ga         0.0796948909        5.5272472465       13.6246777290
  N         0.0798930763        5.5598792215       15.5850195349
 Ga         0.0802743662        7.3978810796       15.8590836990
  N        -1.6378334074       10.1137997349        2.5253605083
 Ga        -1.4732339977        8.2975420670        3.3300125629
  N        -1.5191303411        8.3186509605        5.2610981972
 Ga        -1.5034095011       10.2062554451        5.8155225904
  N        -1.5232087681       10.1843731951        7.8052818765
 Ga        -1.5417350314        8.3313801062        8.4482998866
  N        -1.5414520515        8.3310718009       10.4357660628
 Ga        -1.5152540186       10.1912814097       11.0703325559
  N        -1.4977436442       10.1998866281       13.0630559796
 Ga        -1.5399404822        8.3320454332       13.6249302258
  N        -1.5134791274        8.3168636573       15.5855878204
 Ga        -1.6965951865       10.0847641117       16.4916618580
  N         6.5041553326        1.9519387183        2.5412670942
 Ga         6.5207620455       -0.0281290807        2.8743915873
  N         6.4958492798       -0.0232884292        5.0398170443
 Ga         6.5073786932        1.7984732128        5.8103648426
  N         6.5105715026        1.8183256683        7.8058388684
 Ga         6.5130546948       -0.0307446385        8.4438384416
  N         6.5114905876       -0.0303711148       10.4198345246
 Ga         6.5123636108        1.8099043012       11.0681831479
  N         6.5121976333        1.7879984026       13.0661826260
 Ga         6.5124504113       -0.0386335653       13.8632864784
  N         6.5121560668       -0.0282021508       16.0695803063
 Ga         6.5123737718        1.9849531466       16.4473509941
 Ga         6.5097565176        3.6668888902        1.5352775857
  N         5.0079243895        4.5565291795        2.5208730846
 Ga         4.7919309371        2.6993833524        3.2974638037
  N         4.9008942193        2.7567146291        5.2571649441
 Ga         4.8745681440        4.6259113962        5.8073137656
  N         4.8971241537        4.6187514910        7.8020252627
 Ga         4.9114852853        2.7606808897        8.4401129027
  N         4.9145938478        2.7624872333       10.4345935880
 Ga         4.8892972691        4.6219451125       11.0685426013
  N         4.8706296771        4.6318626858       13.0661190857
 Ga         4.9141078811        2.7609933367       13.6114993493
  N         4.8904606902        2.7448512031       15.5804517548
 Ga         5.0364546618        4.5327272288       16.4465155584
  N         6.5118050244        3.6882656555       17.5813759875
  N         3.3929241670        7.4379222731        2.5024473907
  N         3.2965570348        5.5290343648        5.0337801127
 Ga         3.2690210620        7.3501146523        5.8036213698
  N         3.2981313230        7.3868452117        7.7983928055
 Ga         3.2963857254        5.5407408272        8.4463037391
  N         3.2967262221        5.5411515634       10.4198418058
 Ga         3.2986446175        7.3810382469       11.0694700471
  N         3.2960266526        7.3624658770       13.0618352204
 Ga         3.2880409417        5.5454060169       13.8632103627
  N         3.2943976814        5.5403831378       16.0687824398
 Ga         3.2961399189        7.5943232611       16.4926546108
 Ga         4.8489827440        8.3056359632        1.1952953202
  N         1.7117133828       10.1591692910        2.5400083492
 Ga         1.7555593526        8.3473938320        3.2009765156
  N         1.6731692079        8.3099763727        5.1817527407
 Ga         1.6698297382       10.1944452688        5.7724286323
  N         1.6774462466       10.1842460996        7.7853429183
 Ga         1.7016172709        8.3326949359        8.4428743131
  N         1.7000867523        8.3314701155       10.4337847137
 Ga         1.6751083436       10.1918611813       11.0692614914
  N         1.6576178409       10.1999573365       13.0626181139
 Ga         1.6994986252        8.3320739598       13.6246985033
  N         1.6734434442        8.3170131243       15.5852021148
 Ga         1.8572390933       10.0843283223       16.4922692064
  N         3.3027863154        9.2606350145       17.6278557122
  N         9.7451540522        1.7945251629        2.6518292542
 Ga         9.7402776986       -0.0255970951        3.1613116706
  N         9.7265632291       -0.0282969966        5.1841796434
 Ga         9.7334853510        1.8121092565        5.8639607834
  N         9.7264834861        1.8267692106        7.8489811535
 Ga         9.7302678659       -0.0429362183        8.4300505583
  N         9.7295447045       -0.0431043360       10.4286191752
 Ga         9.7285004355        1.8265009220       11.0242570805
  N         9.7271002994        1.8263390515       12.9972182368
 Ga         9.7280661876       -0.0427674746       13.6255046474
  N         9.7245117241       -0.0108165390       15.5864054841
 Ga         9.7314842724        1.8249141840       15.8631180960
  N         8.0074746218        4.5577528438        2.5327600164
 Ga         8.2354948707        2.6780175841        3.2968681235
  N         8.1165967973        2.7552440582        5.2603992019
 Ga         8.1440192998        4.6251521937        5.8052077630
  N         8.1274715274        4.6206728048        7.8008754375
 Ga         8.1114351486        2.7605941338        8.4378810585
  N         8.1087387417        2.7630957996       10.4335389593
 Ga         8.1341218325        4.6211459468       11.0690046991
  N         8.1533701362        4.6315775716       13.0659146028
 Ga         8.1104399150        2.7608291228       13.6109585928
  N         8.1340098932        2.7447302338       15.5798820720
 Ga         7.9874419624        4.5322322449       16.4463569145
  N         6.4084056326        7.4488138957        2.6146238261
 Ga         6.4957856971        5.6622748067        3.2859935038
  N         6.5102998050        5.5489244088        5.2433759842
 Ga         6.5255439332        7.3888164266        5.9051895833
  N         6.5114034221        7.3971458241        7.8652540191
 Ga         6.5113797483        5.5288425508        8.4422437968
  N         6.5122217922        5.5293575107       10.4335604950
 Ga         6.5116092926        7.3984714315       11.0260102196
  N         6.5118778175        7.3971208744       12.9979716728
 Ga         6.5121740732        5.5290783208       13.6126048638
  N         6.5121591905        5.5569145502       15.5840047111
 Ga         6.5118938392        7.4013948176       15.8636521756
  N         4.9065010230       10.0692508603        2.4959715872
 Ga         4.9162082004        8.3260013272        3.4330554174
  N         4.9049523302        8.3223958588        5.3674125165
 Ga         4.9253850303       10.2329305586        5.7913418461
  N         4.9165336698       10.1839824507        7.7933999407
 Ga         4.8931093191        8.3342693184        8.4387042993
  N         4.8945452452        8.3318134359       10.4303950840
 Ga         4.9192397144       10.1904533470       11.0707874752
  N         4.9350138246       10.2004631636       13.0658024958
 Ga         4.8923368345        8.3321261574       13.6249815820
  N         4.9188386216        8.3126132661       15.5849781844
 Ga         4.7444862083       10.0898472778       16.4914606923
  O         0.0109406676        4.0867907539       -0.4283736849
  H        -0.1892762873        5.8758107534       -0.3433101749
  C         1.1251672753        3.6350953890       -1.2204990563
  H         2.0934134601        3.9406295207       -0.7899757038
  H         1.1198412496        2.5390285574       -1.3269208376
  H         1.0301894377        4.0816757261       -2.2210818582
 Ga         3.2600226640        5.5066034299        2.8763376462
  O        -0.1910786950        6.8606299785       -0.1998804026
  H         0.0341215883        7.3117227908        1.6672824637
  C         0.9398933327        7.3958712737       -0.9042129436
  H         0.9587269844        8.4796468123       -0.7247403795
  H         1.8897618509        6.9721734134       -0.5363232297
  H         0.8632999214        7.2146015454       -1.9882788894
     212
 i =        2, E =     -8504.7049217632
  N         0.0822953406        1.9705609109        2.4920939543
 Ga         0.0779348816        0.0081462711        2.8486734690
  N         0.0886859871       -0.0215002137        5.0282985186
 Ga         0.0823160330        1.8064941504        5.8008253923
  N         0.0812843906        1.8145930968        7.8015929834
 Ga         0.0807946781       -0.0283322822        8.4479736568
  N         0.0803625187       -0.0315906666       10.4212467390
 Ga         0.0796547411        1.8085025939       11.0708539878
  N         0.0798025141        1.7894501762       13.0642656834
 Ga         0.0795573981       -0.0285899048       13.8754948533
  N         0.0796642710       -0.0277146456       16.0707394701
 Ga         0.0796209657        2.0181681203       16.4958276749
 Ga         0.0471374545        3.6811594615        1.3709932136
  N        -1.4030339061        4.5454497666        2.5341843094
 Ga        -1.6017024523        2.6930358304        3.2820489796
  N        -1.5282369281        2.7552603196        5.2610710179
 Ga        -1.5554509344        4.6174795349        5.8075448112
  N        -1.5400068632        4.6187861370        7.8032703455
 Ga        -1.5218006718        2.7552613902        8.4338767994
  N        -1.5167459150        2.7611821949       10.4303604657
 Ga        -1.5429900099        4.6187779307       11.0705869489
  N        -1.5606185605        4.6309233272       13.0628649202
 Ga        -1.5172510990        2.7612864283       13.6218977315
  N        -1.5439899302        2.7433825780       15.5811305458
 Ga        -1.3625735235        4.5116549937       16.4943497029
  N         0.0794276160        3.6842660817       17.6277265174
  N        -3.1452168949        7.5187012808        2.5291338037
 Ga        -3.1007268475        5.5069759179        2.8566589661
  N        -3.1379859313        5.5413537520        5.0212039635
 Ga        -3.1418499150        7.3626763781        5.8006918569
  N        -3.1401289437        7.3877365302        7.7924068916
 Ga        -3.1377064252        5.5397800701        8.4496160007
  N        -3.1373471575        5.5415517505       10.4211434127
 Ga        -3.1376701090        7.3803856240       11.0736859814
  N        -3.1366995428        7.3601670329       13.0646523613
 Ga        -3.1323841963        5.5419664258       13.8671852750
  N        -3.1385472060        5.5383177100       16.0645040595
 Ga        -3.1382771587        7.5855766160       16.4898896953
 Ga        -3.1293517634        9.2664727083        1.5119331157
  N        -4.6360776011       10.1232158381        2.5020054803
 Ga        -4.8685647231        8.2916765478        3.2653140347
  N        -4.7617021085        8.3140463747        5.2241089105
 Ga        -4.7760306254       10.1984716651        5.7976133809
  N        -4.7548130282       10.1839628903        7.7929122955
 Ga        -4.7324754070        8.3354991186        8.4494075179
  N        -4.7333838952        8.3333713780       10.4364295992
 Ga        -4.7603608920       10.1928007636       11.0745507762
  N        -4.7765872657       10.2005717446       13.0675120469
 Ga        -4.7328542082        8.3318000457       13.6241186006
  N        -4.7591027050        8.3154399768       15.5856256632
 Ga        -4.5895693802       10.0919344052       16.4901409376
  N        -3.1406346891        9.2604811639       17.6224115491
  N         3.2834134462        1.8322425200        2.6187906159
 Ga         3.2892528777        0.0940201517        3.2934642499
  N         3.2919074687       -0.0364049970        5.2522405208
 Ga         3.2892072539        1.8276212707        5.8721513083
  N         3.2957110835        1.8252530499        7.8483575782
 Ga         3.2923581006       -0.0402791828        8.4409715438
  N         3.2938008132       -0.0427862391       10.4327184169
 Ga         3.2945913139        1.8268466485       11.0270637181
  N         3.2952561992        1.8254202489       12.9976346957
 Ga         3.2961792252       -0.0434163985       13.6243661029
  N         3.2964678660       -0.0132092319       15.5874976735
 Ga         3.2941993506        1.8260468851       15.8676602056
  N         1.5732928947        4.5474797057        2.5215549178
 Ga         1.7533003978        2.7159416112        3.2688060273
  N         1.6915886859        2.7525809226        5.2510480155
 Ga         1.7129161237        4.6134502652        5.8115821188
  N         1.6977900734        4.6162045641        7.8057333624
 Ga         1.6777327160        2.7576697742        8.4400835222
  N         1.6767656989        2.7608045466       10.4327676123
 Ga         1.7028587083        4.6191360149       11.0703456467
  N         1.7200063630        4.6308857933       13.0626015192
 Ga         1.6763360411        2.7617507776       13.6226419790
  N         1.7036874627        2.7433170452       15.5817374015
 Ga         1.5221753663        4.5116518603       16.4947434724
  N         0.1121808558        7.3820226177        2.6919927092
 Ga         0.0942459629        5.5476202296        3.3372821925
  N         0.0792169103        5.5518372761        5.2758066313
 Ga         0.1060202002        7.4055461345        5.8821182815
  N         0.0812869129        7.3990744752        7.8500840395
 Ga         0.0799436721        5.5277760275        8.4431661717
  N         0.0796748747        5.5276799705       10.4342306428
 Ga         0.0806247284        7.3973409481       11.0298160977
  N         0.0796808948        7.3977270313       13.0020104441
 Ga         0.0798910160        5.5256446957       13.6242525531
  N         0.0799036579        5.5580237852       15.5865763432
 Ga         0.0800876974        7.3967082172       15.8664555886
  N        -1.6398696502       10.1167996861        2.5280102111
 Ga        -1.4620694150        8.2996034848        3.3307663216
  N        -1.5205582669        8.3196614423        5.2602165454
 Ga        -1.5059211967       10.2050322901        5.8182065704
  N        -1.5245127998       10.1842183112        7.8070227011
 Ga        -1.5387495263        8.3303520363        8.4459676105
  N        -1.5409591270        8.3308356379       10.4350806495
 Ga        -1.5145901760       10.1921186245       11.0700519605
  N        -1.4964517631       10.2006686130       13.0635778812
 Ga        -1.5408678344        8.3326140855       13.6237243822
  N        -1.5150494568        8.3170627515       15.5869496925
 Ga        -1.6901705893       10.0902854041       16.4898739716
  N         6.5002007998        1.9505056990        2.5437104760
 Ga         6.5350334806       -0.0365554260        2.8944555914
  N         6.4820631330       -0.0158213858        5.0614682458
 Ga         6.5075526838        1.8006121174        5.8129791526
  N         6.5100230534        1.8193431423        7.8075728798
 Ga         6.5177510452       -0.0335430560        8.4378943936
  N         6.5119741166       -0.0315146478       10.4157292217
 Ga         6.5119991183        1.8088140475       11.0658007061
  N         6.5119375914        1.7885385088       13.0606301852
 Ga         6.5124156013       -0.0332882797       13.8651027130
  N         6.5120642037       -0.0245894746       16.0665390238
 Ga         6.5122945903        2.0006206421       16.4656684395
 Ga         6.5156778618        3.6562641789        1.5407968212
  N         5.0106484640        4.5427210805        2.5167795837
 Ga         4.7923911702        2.6924149994        3.3029379803
  N         4.9005236338        2.7593647427        5.2600714789
 Ga         4.8791811538        4.6270370071        5.8047644229
  N         4.8973581585        4.6192821135        7.7986988235
 Ga         4.9114412343        2.7600058649        8.4407669028
  N         4.9135201955        2.7624399049       10.4337418941
 Ga         4.8877376264        4.6206212851       11.0698537029
  N         4.8707999606        4.6315325458       13.0628377541
 Ga         4.9139209948        2.7605468017       13.6116465033
  N         4.8889469578        2.7434516394       15.5750299749
 Ga         5.0487781661        4.5258967352       16.4645648401
  N         6.5121429848        3.6904308016       17.5939850413
  N         3.4233126296        7.4347094163        2.5273631704
  N         3.2946252399        5.5288010483        5.0450409249
 Ga         3.2615986478        7.3483394381        5.8211989176
  N         3.2885267424        7.3824150525        7.8095443221
 Ga         3.2957529108        5.5377947242        8.4503971208
  N         3.2964274916        5.5406885751       10.4214195676
 Ga         3.2976951548        7.3808885045       11.0699016046
  N         3.2960238330        7.3601617688       13.0627275466
 Ga         3.2919305795        5.5424170213       13.8666097979
  N         3.2981989732        5.5383129244       16.0650449743
 Ga         3.2976745692        7.5860407480       16.4906561643
 Ga         4.8214456396        8.3431407183        1.1734535547
  N         1.6913429132       10.1697054138        2.5397240199
 Ga         1.7539862991        8.3797185544        3.1486303121
  N         1.6917709850        8.3037771322        5.1567685929
 Ga         1.6744613587       10.1921884309        5.7398022675
  N         1.6794334395       10.1827539947        7.7645558388
 Ga         1.6973522707        8.3388369437        8.4441068909
  N         1.6997835788        8.3323228038       10.4345060238
 Ga         1.6744603190       10.1923280549       11.0695741051
  N         1.6559533647       10.2006962771       13.0633142606
 Ga         1.7006350499        8.3326294606       13.6233565995
  N         1.6747966411        8.3170791313       15.5867022738
 Ga         1.8503656225       10.0898219909       16.4902013324
  N         3.3004404390        9.2605716098       17.6232852283
  N         9.7537891488        1.7978966034        2.6438898974
 Ga         9.7107467517       -0.0448582666        3.0968777261
  N         9.7403126754       -0.0421516283        5.1553217603
 Ga         9.7323075031        1.7981791114        5.8402203083
  N         9.7267179278        1.8232805768        7.8324553855
 Ga         9.7225354246       -0.0419164608        8.4308425603
  N         9.7284144936       -0.0440584930       10.4284123408
 Ga         9.7292889583        1.8254951753       11.0233163159
  N         9.7285891079        1.8254766637       12.9955631798
 Ga         9.7280083682       -0.0433017824       13.6236015141
  N         9.7275875818       -0.0132469001       15.5870261468
 Ga         9.7302685837        1.8258509768       15.8673904189
  N         8.0052524567        4.5616132250        2.5362758828
 Ga         8.2402097631        2.6637096238        3.2953222142
  N         8.1148974588        2.7566017445        5.2579522173
 Ga         8.1433111606        4.6233299086        5.7966879944
  N         8.1266247135        4.6211026353        7.7940032527
 Ga         8.1140437653        2.7582710032        8.4354454552
  N         8.1093653813        2.7628731196       10.4317223650
 Ga         8.1349208174        4.6202426511       11.0701045540
  N         8.1532933326        4.6315884575       13.0630873621
 Ga         8.1103089429        2.7603151301       13.6111451236
  N         8.1355322836        2.7433826048       15.5747159324
 Ga         7.9754818295        4.5256474313       16.4644866734
  N         6.3833109119        7.4633946284        2.6153064831
 Ga         6.4819375929        5.6572093292        3.2760769840
  N         6.5119854575        5.5623235002        5.2327512365
 Ga         6.5213434438        7.3915508228        5.9201816429
  N         6.5176087393        7.3937571684        7.8736041146
 Ga         6.5117163077        5.5242619089        8.4499568697
  N         6.5113895291        5.5286343158       10.4381184733
 Ga         6.5106134057        7.3997376517       11.0265541199
  N         6.5120439994        7.3984729318       12.9976967604
 Ga         6.5119690715        5.5285124863       13.6132711757
  N         6.5122390499        5.5587542051       15.5787321391
 Ga         6.5119254583        7.3985993332       15.8687983376
  N         4.9232393630       10.0413715129        2.5136905718
 Ga         4.9051333393        8.3345407647        3.5191170690
  N         4.8978384873        8.3278987271        5.3969638774
 Ga         4.9232949889       10.2417510128        5.8113357810
  N         4.9155027335       10.1948597391        7.8059438483
 Ga         4.8898403743        8.3362249276        8.4310277251
  N         4.8931166932        8.3325747151       10.4260296507
 Ga         4.9184550618       10.1913540998       11.0704780383
  N         4.9362105998       10.2008552745       13.0655563655
 Ga         4.8918581773        8.3321529735       13.6235073628
  N         4.9184827783        8.3155314277       15.5853952482
 Ga         4.7485284148       10.0918806259       16.4906474691
  O         0.0123857361        4.0831238102       -0.4251591571
  H        -0.1883788033        5.8794851522       -0.3447634505
  C         1.1258790826        3.6347569402       -1.2208770295
  H         2.0924262799        3.9399481455       -0.7911298644
  H         1.1217963148        2.5407386692       -1.3279074586
  H         1.0306816033        4.0810762320       -2.2195150298
 Ga         3.2721899087        5.5024402192        2.8883020675
  O        -0.1935990297        6.8621982557       -0.1981805205
  H         0.0370520427        7.3082081157        1.6594799336
  C         0.9400260113        7.3950260985       -0.9016281433
  H         0.9600880198        8.4765576251       -0.7240779675
  H         1.8895175555        6.9737413729       -0.5373155782
  H         0.8658004605        7.2178970323       -1.9841014896
     212
 i =        3, E =     -8504.7081427857
  N         0.0846597353        1.9660891209        2.4941267464
 Ga         0.0761839464       -0.0009340907        2.8600390913
  N         0.0907538281       -0.0220888106        5.0349930319
 Ga         0.0821588521        1.8070057136        5.8041419995
  N         0.0813964270        1.8162019225        7.8034929550
 Ga         0.0819541185       -0.0257451901        8.4504543640
  N         0.0814378584       -0.0312502648       10.4228593512
 Ga         0.0788878554        1.8096677607       11.0708075922
  N         0.0797895432        1.7903799358       13.0642168577
 Ga         0.0789425467       -0.0287404997       13.8728926507
  N         0.0795497216       -0.0286244499       16.0748058610
 Ga         0.0795903347        2.0217899725       16.4909289506
 Ga         0.0473571855        3.6818547521        1.3710534724
  N        -1.4022743640        4.5453267091        2.5385799653
 Ga        -1.5991314838        2.6864539593        3.2815215676
  N        -1.5278495070        2.7551290040        5.2592034848
 Ga        -1.5556864508        4.6175067093        5.8083558434
  N        -1.5395955096        4.6187261441        7.8035506092
 Ga        -1.5251442013        2.7540486240        8.4290505580
  N        -1.5179439086        2.7608949866       10.4264813622
 Ga        -1.5429839228        4.6189088857       11.0704505764
  N        -1.5595249284        4.6300833905       13.0642669896
 Ga        -1.5180260412        2.7600866237       13.6234664303
  N        -1.5446655644        2.7414610001       15.5823330476
 Ga        -1.3621890279        4.5123998061       16.4887238554
  N         0.0795138240        3.6869687529       17.6256284700
  N        -3.1486123095        7.5197562265        2.5284639901
 Ga        -3.1025338357        5.5080111188        2.8572486111
  N        -3.1360708948        5.5402273471        5.0173641223
 Ga        -3.1412083510        7.3622737061        5.7948550486
  N        -3.1395894406        7.3886692573        7.7880660224
 Ga        -3.1382530752        5.5402187094        8.4450122285
  N        -3.1373373023        5.5420835557       10.4174210519
 Ga        -3.1357193070        7.3793962932       11.0765543488
  N        -3.1363691313        7.3614701106       13.0678568310