     156
 i =        1, E =     -6136.4364646657
 Ga        -0.0031972549       -0.0158329591       -0.5375900832
  N        -0.0002729657        1.8584778504        0.6070078235
 Ga        -0.0003340999        1.8280294746        2.6383750125
  N        -0.0033776114       -0.0156159490        3.2696595654
 Ga        -0.0021650817       -0.0150506416        5.2603774530
  N         0.0008175163        1.8596742334        5.8482884779
 Ga         0.0022928281        1.8581499992        7.8482665843
  N         0.0008339517       -0.0150048439        8.4506111367
 Ga         0.0037483629       -0.0157265524       10.4498118246
  N         0.0042739072        1.8600713501       11.0415158874
 Ga         0.0095533522        1.8622610367       13.0319902970
  N         0.0153396398       -0.0087525795       13.6324780685
 Ga         0.0304371218       -0.0177964761       15.6248745272
  N         0.0198717005        1.8575550607       16.2217865988
 Ga         0.0448262227        1.8472751592       18.2879931667
  N         0.0484576056       -0.0267880692       18.6983084388
 Ga        -1.6230534825        2.7898789896        0.3238597783
  N        -1.6248093644        4.6597398624        0.6067089146
 Ga        -1.5956882661        4.6757300896        2.6367607240
  N        -1.6231060587        2.7899846689        3.2282984529
 Ga        -1.6217675728        2.7906190602        5.2398456621
  N        -1.6212822465        4.6608904637        5.8464803557
 Ga        -1.6191122897        4.6615351155        7.8452282406
  N        -1.6203690588        2.7918387141        8.4512164138
 Ga        -1.6194729914        2.7953566340       10.4472063447
  N        -1.6174683755        4.6668761471       11.0551769844
 Ga        -1.6181809318        4.6714273888       13.0527323634
  N        -1.6072627212        2.7998600070       13.6584243050
 Ga        -1.6007560250        2.8165327456       15.6630008667
  N        -1.5863765866        4.6838898034       16.3118817010
 Ga        -1.5148301218        4.6807020028       18.3863146658
  N        -1.5542842261        2.7886589865       18.7555659100
 Ga        -3.2437385973        5.5955550715        0.3237783547
  N        -3.2373753049        7.4661486560        0.6072658069
 Ga        -3.2641806224        7.4807088952        2.6385141087
  N        -3.2426867728        5.5950415134        3.2286372596
 Ga        -3.2419165789        5.5960174653        5.2400939872
  N        -3.2357829284        7.4663005247        5.8469800336
 Ga        -3.2358767397        7.4670827144        7.8461622307
  N        -3.2398781996        5.5961815256        8.4495377129
 Ga        -3.2389516838        5.5972390269       10.4449945674
  N        -3.2308414074        7.4658213010       11.0556071532
 Ga        -3.2219062746        7.4629268179       13.0544056420
  N        -3.2355691482        5.5972748248       13.6928936791
 Ga        -3.2225848382        5.5919075773       15.7299780963
  N        -3.2085898920        7.4742210151       16.2705940373
 Ga        -3.1858444989        7.4478617975       18.3278552159
  N        -3.1584963340        5.5863636357       18.8506236361
 Ga         3.2425510965       -0.0154445291        0.3241654732
  N         3.2414640647        1.8548065702        0.6064094703
 Ga         3.2696596734        1.8704489976        2.6372738422
  N         3.2428079731       -0.0153018783        3.2282995961
 Ga         3.2440036550       -0.0146004854        5.2399714742
  N         3.2446613172        1.8555403336        5.8474811979
 Ga         3.2471221248        1.8563010793        7.8469079666
  N         3.2448898527       -0.0146532325        8.4498675343
 Ga         3.2477517199       -0.0140978852       10.4454179945
  N         3.2516268038        1.8569294308       11.0511970163
 Ga         3.2584330650        1.8539866586       13.0485581866
  N         3.2578064484       -0.0166656543       13.6599122388
 Ga         3.2698347936       -0.0188313200       15.6658256655
  N         3.2837303588        1.8547019038       16.2309174654
 Ga         3.3197088174        1.8602540830       18.2553739765
  N         3.3063936454       -0.0257464311       18.7098003474
 Ga         1.6221356078        2.7905838594        0.3237619472
  N         1.6293375917        4.6603703324        0.6070296824
 Ga         1.6011643016        4.6758748331        2.6371245577
  N         1.6229363628        2.7900954139        3.2290339685
 Ga         1.6243017143        2.7909482504        5.2408961257
  N         1.6297315959        4.6611465047        5.8483976166
 Ga         1.6302388833        4.6616202709        7.8483702700
  N         1.6261118287        2.7902918706        8.4496357887
 Ga         1.6296899287        2.7921098123       10.4450872645
  N         1.6277750076        4.6624156126       11.0490641405
 Ga         1.6291306755        4.6647275891       13.0447249081
  N         1.6312524770        2.7873739196       13.6464122881
 Ga         1.6546398250        2.7850046948       15.6411393761
  N         1.6291217078        4.6650581593       16.1844800972
 Ga         1.6783016676        4.6402620345       18.1814829376
  N         1.6848954634        2.7776637207       18.6345603174
 Ga         0.0031267867        5.5957809489       -0.5460633650
  N         0.0059631048        7.4707669386        0.6066956468
 Ga         0.0060797638        7.4382908528        2.6368410943
  N         0.0030123333        5.5951899631        3.2695482898
 Ga         0.0046919321        5.5962069283        5.2597877790
  N         0.0074732054        7.4707307732        5.8477487690
 Ga         0.0089322795        7.4693591328        7.8473893498
  N         0.0049609652        5.5956917935        8.4475192996
 Ga         0.0067180298        5.5972391003       10.4447923842
  N         0.0116957333        7.4694063005       11.0449394092
 Ga         0.0151570455        7.4713924622       13.0370349478
  N         0.0056949102        5.6027621892       13.6456972220
 Ga         0.0063796338        5.6014668950       15.6419162931
  N         0.0373070831        7.4658694416       16.2694011176
 Ga         0.0724324601        7.4325587268       18.3564478426
  N         0.1378011114        5.5811768523       18.8957967513
 Ga         6.4873194845       -0.0150112885        0.3233798747
  N         6.4933547073        1.8552431755        0.6060816884
 Ga         6.4660951542        1.8703005973        2.6370733449
  N         6.4880555850       -0.0152152508        3.2289130204
 Ga         6.4897975632       -0.0146100637        5.2408678125
  N         6.4945650877        1.8559331805        5.8479460318
 Ga         6.4944342885        1.8568659199        7.8475126841
  N         6.4910149992       -0.0135251664        8.4516011771
 Ga         6.4945734745       -0.0112829006       10.4481983937
  N         6.4964399285        1.8611467061       11.0528916046
 Ga         6.5008997760        1.8654484332       13.0500787483
  N         6.4899470610       -0.0070156433       13.6381405045
 Ga         6.5088937421       -0.0001147793       15.6390564281
  N         6.5164332422        1.8736460319       16.2292202658
 Ga         6.5725870450        1.8765342329       18.2704330839
  N         6.5608388304       -0.0215480207       18.6558712307
 Ga         4.8675978445        2.7916177835       -0.5407188474
  N         4.8709926179        4.6643842905        0.6069551071
 Ga         4.8708434477        4.6332341598        2.6375500599
  N         4.8683123771        2.7899034072        3.2692894327
 Ga         4.8696074976        2.7911737596        5.2595304801
  N         4.8722551311        4.6651829098        5.8481365719
 Ga         4.8727506919        4.6640328478        7.8478326168
  N         4.8709693727        2.7914547404        8.4504843548
 Ga         4.8737855308        2.7956408899       10.4497248755
  N         4.8796245540        4.6660313851       11.0583780898
 Ga         4.8810107393        4.6698045288       13.0608602246
  N         4.8759956401        2.7957818971       13.6539231290
 Ga         4.8829646648        2.8016809327       15.6676790976
  N         4.8620862731        4.6739733011       16.1684694861
 Ga         4.9335731809        4.6623316200       19.0898106423
  N         4.9399841309        2.7834149802       18.7398479709
 Ga         3.2489114825        5.5950411032        0.3233229600
  N         3.2480357125        7.4655301608        0.6067764680
 Ga         3.2754806041        7.4805715115        2.6380913046
  N         3.2486686327        5.5952812664        3.2290880937
 Ga         3.2500912040        5.5963523899        5.2407628579
  N         3.2504881926        7.4661953151        5.8494273727
 Ga         3.2531335954        7.4666189121        7.8498791127
  N         3.2515174960        5.5959992239        8.4552136867
 Ga         3.2549085840        5.5976493179       10.4543346606
  N         3.2566792390        7.4714388695       11.0506375468
 Ga         3.2573338003        7.4729064348       13.0478519544
  N         3.2491293578        5.5986909648       13.6294606076
 Ga         3.2564819932        5.6058584703       15.6353169758
  N         3.2799192545        7.4864935269       16.1588539852
 Ga         3.3268816605        7.4924268456       18.1721977216
  N         3.3624977598        5.5702010284       18.4640805235
  O         1.6579168423        5.2375890145       21.1730478390
  H         0.9755212376        5.4314869265       20.4344486637
  C         0.7688429666        3.8670123574       21.9582648664
  H         0.0803097316        3.5117610995       21.1676420345
  H         1.5734301530        3.1569958159       22.2124264231
  H         0.2848896743        4.3739974202       22.8132511017
  O         4.2605153942        4.7164245189       21.0741265601
  H         3.2542556278        4.8647097710       21.0680393169
  C         4.5525010817        3.5936693302       21.9453674596
  H         4.1173204364        2.6612968995       21.5594895716
  H         5.6443078849        3.5049149338       21.9644866354
  H         4.1780016882        3.8122194307       22.9536206568
     156
 i =        2, E =     -6136.5352889740
 Ga        -0.0031759949       -0.0158221058       -0.5436835567
  N        -0.0002196897        1.8587228750        0.6074844793
 Ga        -0.0002012166        1.8275802702        2.6378099552
  N        -0.0033005671       -0.0156312943        3.2704182964
 Ga        -0.0021145894       -0.0150367767        5.2604856157
  N         0.0009716104        1.8597923465        5.8488088591
 Ga         0.0025865245        1.8583722088        7.8486712482
  N         0.0010959135       -0.0151349031        8.4496451131
 Ga         0.0044053672       -0.0152946105       10.4484518356
  N         0.0043513277        1.8598422448       11.0470638804
 Ga         0.0111369807        1.8615468850       13.0392912076
  N         0.0172917402       -0.0095583985       13.6404817423
 Ga         0.0338638657       -0.0280933871       15.6338102257
  N         0.0273839756        1.8554692442       16.2151757544
 Ga         0.0469930661        1.8525235992       18.2762645867
  N         0.0421201596       -0.0179974492       18.6872196010
 Ga        -1.6226009823        2.7897346664        0.3241865840
  N        -1.6245026766        4.6598397560        0.6064658566
 Ga        -1.5959197198        4.6755888796        2.6366401784
  N        -1.6228364408        2.7898243241        3.2284430519
 Ga        -1.6216856650        2.7907676513        5.2398758888
  N        -1.6210899000        4.6610611605        5.8469784277
 Ga        -1.6190159065        4.6620081682        7.8455963799
  N        -1.6204211313        2.7920911553        8.4510273814
 Ga        -1.6190803947        2.7955635952       10.4468405399
  N        -1.6176958850        4.6666224607       11.0566308834
 Ga        -1.6190926331        4.6701174760       13.0547623732
  N        -1.6056409541        2.7992274125       13.6648923962
 Ga        -1.6019079418        2.8142385196       15.6694697727
  N        -1.5904578664        4.6782487085       16.3084527413
 Ga        -1.5214303268        4.6792957876       18.3812811978
  N        -1.5501374412        2.7864495068       18.7424973790
 Ga        -3.2435611064        5.5959241675        0.3241242801
  N        -3.2370406309        7.4660111739        0.6077432496
 Ga        -3.2644653611        7.4808569478        2.6379945843
  N        -3.2426508992        5.5952224989        3.2287925267
 Ga        -3.2418183843        5.5960143834        5.2400745763
  N        -3.2356004764        7.4663773762        5.8472326526
 Ga        -3.2355082896        7.4670004664        7.8461660320
  N        -3.2398389260        5.5963897305        8.4502772972
 Ga        -3.2390894034        5.5972910886       10.4460215537
  N        -3.2309961045        7.4662065223       11.0555189170
 Ga        -3.2227874833        7.4619974250       13.0543185958
  N        -3.2367824785        5.5967347618       13.6925323965
 Ga        -3.2247494355        5.5898099015       15.7301200420
  N        -3.2028610419        7.4635751281       16.2764167818
 Ga        -3.1935669595        7.4440942172       18.3322504326
  N        -3.1551125079        5.5868828264       18.8574633714
 Ga         3.2423683407       -0.0157093436        0.3244633215
  N         3.2417696024        1.8549350561        0.6061373531
 Ga         3.2695528203        1.8703323974        2.6372935665
  N         3.2426777089       -0.0154190654        3.2284296825
 Ga         3.2442636154       -0.0145740783        5.2399257099
  N         3.2447182183        1.8555529782        5.8478363228
 Ga         3.2473470901        1.8562769117        7.8469736416
  N         3.2448465156       -0.0144963984        8.4500208940
 Ga         3.2475100960       -0.0138574663       10.4453707054
  N         3.2521983181        1.8571418500       11.0515837684
 Ga         3.2596206435        1.8527542023       13.0485406290
  N         3.2552836702       -0.0166225119       13.6614301943
 Ga         3.2628046867       -0.0184011916       15.6677519372
  N         3.2841739989        1.8504994699       16.2384201812
 Ga         3.3232920280        1.8607548312       18.2653585639
  N         3.2966907660       -0.0221722311       18.7322607810
 Ga         1.6218176070        2.7904612985        0.3241991934
  N         1.6291392794        4.6604830434        0.6068486242
 Ga         1.6016212039        4.6756659182        2.6370276694
  N         1.6228455171        2.7899504504        3.2291918271
 Ga         1.6244570337        2.7911282835        5.2408444452
  N         1.6297854409        4.6612624521        5.8487800103
 Ga         1.6303466325        4.6619282502        7.8485239308
  N         1.6266118119        2.7906095688        8.4497401213
 Ga         1.6296630750        2.7921303866       10.4451863946
  N         1.6277809581        4.6627046790       11.0472970519
 Ga         1.6259465050        4.6655787030       13.0429498877
  N         1.6347658821        2.7887669087       13.6472299716
 Ga         1.6596506605        2.7887795168       15.6406760440
  N         1.6262741317        4.6630083329       16.1785024483
 Ga         1.6796544037        4.6437475390       18.1784678585
  N         1.6839246046        2.7818362450       18.6245827539
 Ga         0.0032530889        5.5956756176       -0.5455280707
  N         0.0060286031        7.4704414241        0.6065285246
 Ga         0.0061658144        7.4386287529        2.6368068936
  N         0.0031397552        5.5951614209        3.2690679755
 Ga         0.0048604824        5.5963135478        5.2595311695
  N         0.0075774887        7.4707094783        5.8484471865
 Ga         0.0088839004        7.4693945513        7.8479434451
  N         0.0051463069        5.5957417327        8.4476296203
 Ga         0.0062882462        5.5969997464       10.4448517525
  N         0.0117062179        7.4695973151       11.0441700641
 Ga         0.0141821286        7.4729611855       13.0363682258
  N         0.0037051668        5.6046251458       13.6454631737
 Ga         0.0067082444        5.5975745021       15.6438598387
  N         0.0409479948        7.4729871957       16.2571932824
 Ga         0.0582004265        7.4408748173       18.3472640314
  N         0.1280136483        5.5849332214       18.8723683471
 Ga         6.4876522591       -0.0152850911        0.3237080307
  N         6.4931763629        1.8553781102        0.6057998328
 Ga         6.4663220996        1.8701287846        2.6370698569
  N         6.4883327228       -0.0153374471        3.2290987757
 Ga         6.4898037018       -0.0146537524        5.2408575877
  N         6.4947009464        1.8558896871        5.8483158787
 Ga         6.4943474947        1.8569104151        7.8476575262
  N         6.4910325529       -0.0134064466        8.4511260279
 Ga         6.4945735054       -0.0103723051       10.4476145423
  N         6.4966816185        1.8619608194       11.0549879028
 Ga         6.5018317741        1.8677045912       13.0527417473
  N         6.4917987841       -0.0055996703       13.6328489033
 Ga         6.5118938129        0.0017976898       15.6320520895
  N         6.5166154891        1.8707910077       16.2352372297
 Ga         6.5730702565        1.8732645830       18.2778237463
  N         6.5562934518       -0.0250513873       18.6637178270
 Ga         4.8676736428        2.7915008463       -0.5393254227
  N         4.8710713690        4.6640497116        0.6066525451
 Ga         4.8708863229        4.6334555046        2.6375435123
  N         4.8683980944        2.7899188841        3.2691482649
 Ga         4.8697104830        2.7912621266        5.2595202350
  N         4.8723546719        4.6653005043        5.8485561846
 Ga         4.8728607734        4.6642959472        7.8480926635
  N         4.8709940078        2.7916293425        8.4502838712
 Ga         4.8740713212        2.7956752664       10.4491586494
  N         4.8789796137        4.6656590916       11.0581683725
 Ga         4.8804961050        4.6702732944       13.0613916348
  N         4.8751178825        2.7969165707       13.6589161029
 Ga         4.8826109505        2.7989002001       15.6756524136
  N         4.8535937274        4.6745812255       16.1569864513
 Ga         4.9434842576        4.6573980284       19.0971483788
  N         4.9427649312        2.7825092679       18.7437490128
 Ga         3.2488581724        5.5953717580        0.3237239343
  N         3.2478442790        7.4653643778        0.6073686195
 Ga         3.2758996997        7.4806944133        2.6376661875
  N         3.2487770779        5.5954611341        3.2293294249
 Ga         3.2501629937        5.5963692847        5.2407968250
  N         3.2505218738        7.4662234084        5.8497815437
 Ga         3.2530896578        7.4665543144        7.8500538705
  N         3.2515611825        5.5960596385        8.4548411839
 Ga         3.2548899670        5.5980625399       10.4539449730
  N         3.2571186845        7.4724792498       11.0488132561
 Ga         3.2591349866        7.4750939723       13.0460259477
  N         3.2462470416        5.6008934877       13.6218025345
 Ga         3.2538209131        5.6086122600       15.6270356829
  N         3.2771682741        7.4851361716       16.1607245801
 Ga         3.3221834577        7.4900102251       18.1750162517
  N         3.3808960059        5.5622138316       18.4419057884
  O         1.7221145197        5.4582520299       21.1520230253
  H         0.9986902595        5.4829804271       20.3840499874
  C         0.6990179705        3.7253757105       22.0218416060
  H         0.0439112567        3.4680154078       21.1689457069
  H         1.5771644242        3.1022463504       22.2434810695
  H         0.2680168476        4.3336023295       22.8370523501
  O         4.2583067656        4.7077918569       21.0740498880
  H         3.2557084628        4.9100669549       21.0357220995
  C         4.5747146197        3.5938719182       21.9431214146
  H         4.1212516523        2.6676102660       21.5597102624
  H         5.6620531871        3.4770863465       21.9847249086
  H         4.1808896349        3.8115746405       22.9457854686
     156
 i =        3, E =     -6136.5522613809
 Ga        -0.0031297503       -0.0158274986       -0.5459744603
  N        -0.0001613803        1.8590052678        0.6075002440
 Ga        -0.0001602430        1.8273628982        2.6376576957
  N        -0.0031960390       -0.0156539473        3.2706301684
 Ga        -0.0019446403       -0.0148953205        5.2606591942
  N         0.0010503756        1.8599193447        5.8484581934
 Ga         0.0026980125        1.8586883531        7.8479691802
  N         0.0014282875       -0.0144560822        8.4499399017
 Ga         0.0050514697       -0.0140650983       10.4484764085
  N         0.0047041802        1.8597621837       11.0506558835
 Ga         0.0123225094        1.8600087202       13.0443174590
  N         0.0181423724       -0.0120591149       13.6432776590
 Ga         0.0348664954       -0.0316499203       15.6368760012
  N         0.0317395946        1.8540670625       16.2115297957
 Ga         0.0479972150        1.8557600390       18.2684146608
  N         0.0378028714       -0.0147040852       18.6801930847
 Ga        -1.6223863842        2.7898932842        0.3247836734
  N        -1.6242252740        4.6599627155        0.6066415949
 Ga        -1.5957801613        4.6755732207        2.6369223252
  N        -1.6226725880        2.7898135045        3.2285348336
 Ga        -1.6214435699        2.7908380472        5.2400135274
  N        -1.6211008414        4.6610933951        5.8468134464
 Ga        -1.6190599691        4.6617789681        7.8455088544
  N        -1.6199185040        2.7919816330        8.4526252219
 Ga        -1.6182997149        2.7953156564       10.4485715901
  N        -1.6179594522        4.6661300907       11.0577428804
 Ga        -1.6196188772        4.6694012211       13.0562160078
  N        -1.6047461901        2.7986472079       13.6671220867
 Ga        -1.6011340992        2.8116307721       15.6715526154
  N        -1.5934772517        4.6743311069       16.3059266952
 Ga        -1.5212903650        4.6814295395       18.3786730378
  N        -1.5473480540        2.7870972628       18.7394714253
 Ga        -3.2432623556        5.5959745947        0.3246429602
  N        -3.2366950730        7.4658370061        0.6076767570
 Ga        -3.2645587219        7.4809561621        2.6377462414
  N        -3.2425114466        5.5953093674        3.2287317356
 Ga        -3.2416496237        5.5961430301        5.2400706028
  N        -3.2355168180        7.4663438412        5.8470957788
 Ga        -3.2355202458        7.4670503435        7.8459621784
  N        -3.2395934876        5.5965291374        8.4508213818
 Ga        -3.2389264991        5.5969704145       10.4468278109
  N        -3.2314400751        7.4660855314       11.0551116941
 Ga        -3.2229062994        7.4619139777       13.0536036171
  N        -3.2388545801        5.5961451205       13.6898848363
 Ga        -3.2248952029        5.5888481060       15.7271815994
  N        -3.2013642652        7.4584909157       16.2808244557
 Ga        -3.1975985665        7.4426936472       18.3376226854
  N        -3.1513420327        5.5870157562       18.8643519522
 Ga         3.2425215795       -0.0159753638        0.3249905635
  N         3.2417075266        1.8548149159        0.6061318546
 Ga         3.2696034161        1.8702740298        2.6376299240
  N         3.2427372264       -0.0155171671        3.2284345012
 Ga         3.2442194298       -0.0145930535        5.2400139892
  N         3.2448409275        1.8556159027        5.8475488358
 Ga         3.2472457667        1.8565699345        7.8467821881
  N         3.2447610108       -0.0142752951        8.4502061713
 Ga         3.2471895781       -0.0137282994       10.4456927626
  N         3.2529465607        1.8571328591       11.0519121293
 Ga         3.2600260579        1.8538632376       13.0486968287
  N         3.2538465549       -0.0153601806       13.6604120137
 Ga         3.2606123893       -0.0182031873       15.6669930933
  N         3.2842479421        1.8480245397       16.2444385601
 Ga         3.3219614861        1.8632652696       18.2731452262
  N         3.2931058498       -0.0199641715       18.7429477295
 Ga         1.6217239688        2.7905999019        0.3247651102
  N         1.6290251690        4.6605818896        0.6070662609
 Ga         1.6016334992        4.6756777964        2.6373609554
  N         1.6228671928        2.7898939684        3.2292046224
 Ga         1.6244347199        2.7911061041        5.2409465678
  N         1.6298730834        4.6612715641        5.8486154178
 Ga         1.6303680858        4.6617671766        7.8486698802
  N         1.6264097403        2.7903427832        8.4510645382
 Ga         1.6296062345        2.7917618108       10.4468526134
  N         1.6270611604        4.6628107378       11.0455819028
 Ga         1.6247520739        4.6663657588       13.0405567490
  N         1.6361783757        2.7903125621       13.6465025670
 Ga         1.6627086803        2.7889207262       15.6392111503
  N         1.6239197985        4.6624711336       16.1711666707
 Ga         1.6819004833        4.6451442773       18.1700889517
  N         1.6821167409        2.7875918750       18.6254154364
 Ga         0.0033305204        5.5956029875       -0.5460705397
  N         0.0061065019        7.4701344079        0.6066521936
 Ga         0.0062497541        7.4385461159        2.6370313565
  N         0.0031899921        5.5951855322        3.2692742649
 Ga         0.0048772198        5.5963060519        5.2597221432
  N         0.0076465515        7.4707933775        5.8481776267
 Ga         0.0089928975        7.4695233713        7.8479010287
  N         0.0049106618        5.5957532235        8.4479110749
 Ga         0.0055266119        5.5971834588       10.4454033964
  N         0.0115106007        7.4700855695       11.0444479056
 Ga         0.0134333291        7.4731131884       13.0370663853
  N         0.0029452857        5.6045037436       13.6443895119
 Ga         0.0052514800        5.5976262420       15.6435865826
  N         0.0406476728        7.4761649112       16.2560414047
 Ga         0.0487840591        7.4425648183       18.3445928047
  N         0.1316928000        5.5830590662       18.8629020090
 Ga         6.4876541461       -0.0155571790        0.3242245401
  N         6.4933702268        1.8552420948        0.6057978859
 Ga         6.4664916383        1.8701103585        2.6374191936
  N         6.4884175247       -0.0154068856        3.2291422063
 Ga         6.4899963048       -0.0146091291        5.2410154467
  N         6.4948637240        1.8560280408        5.8479113239
 Ga         6.4948338007        1.8572878924        7.8472536221
  N         6.4910797912       -0.0128766528        8.4518374227
 Ga         6.4947698716       -0.0094076366       10.4487492605
  N         6.4966413947        1.8632845802       11.0553582122
 Ga         6.5027106885        1.8693718236       13.0530262122
  N         6.4926300529       -0.0038808732       13.6304300692
 Ga         6.5102816005        0.0021730675       15.6287774071
  N         6.5176434521        1.8690758844       16.2387890999
 Ga         6.5755027296        1.8692637630       18.2834993974
  N         6.5529982269       -0.0305997021       18.6663251865
 Ga         4.8677632957        2.7914592991       -0.5387921294
  N         4.8711365122        4.6641987000        0.6066168198
 Ga         4.8710190055        4.6334864363        2.6378421564
  N         4.8684888615        2.7899021597        3.2692625649
 Ga         4.8698442915        2.7913572615        5.2597282599
  N         4.8725866817        4.6653957404        5.8483546718
 Ga         4.8730560258        4.6644130922        7.8480796341
  N         4.8712467518        2.7915134250        8.4505545059
 Ga         4.8741616102        2.7960515330       10.4494382006
  N         4.8787723187        4.6657235155       11.0576577225
 Ga         4.8788523883        4.6690159235       13.0607214354
  N         4.8756462132        2.7967208938       13.6621003150
 Ga         4.8819879513        2.7952642571       15.6807820683
  N         4.8478337511        4.6764224349       16.1500965285
 Ga         4.9521783688        4.6504976072       19.0963079505
  N         4.9459759199        2.7756935654       18.7514650235
 Ga         3.2487057130        5.5954275178        0.3242274960
  N         3.2476427377        7.4651817098        0.6073603361
 Ga         3.2761577970        7.4808231548        2.6374547708
  N         3.2488724100        5.5955333386        3.2293296253
 Ga         3.2502878499        5.5964863330        5.2409603043
  N         3.2506950068        7.4663293346        5.8495881418
 Ga         3.2532947227        7.4669343019        7.8499668813
  N         3.2516454350        5.5963085878        8.4549001939
 Ga         3.2546494327        5.5981048352       10.4543674969
  N         3.2582180862        7.4732519480       11.0464904093
 Ga         3.2592499658        7.4770987983       13.0428509761
  N         3.2447864203        5.6032875594       13.6163567863
 Ga         3.2506332107        5.6111767403       15.6202162859
  N         3.2743071657        7.4852485545       16.1612004804
 Ga         3.3185478861        7.4873359559       18.1766033839
  N         3.3933801768        5.5550134892       18.4260159745
  O         1.7605399562        5.5577160659       21.1208990529
  H         1.0505562016        5.5759016979       20.3761780627
  C         0.6552811025        3.6486883229       22.0557204283