 DBCSR| Multiplication driver                                               BLAS
 DBCSR| Multrec recursion limit                                              512
 DBCSR| Multiplication stack size                                           1000
 DBCSR| Maximum elements for images                                    UNLIMITED
 DBCSR| Multiplicative factor virtual images                                   1
 DBCSR| Multiplication size stacks                                             3
 DBCSR| Number of 3D layers                                               SINGLE
 DBCSR| Use MPI memory allocation                                              T
 DBCSR| Use RMA algorithm                                                      F
 DBCSR| Use Communication thread                                               T
 DBCSR| Communication thread load                                             87


  **** **** ******  **  PROGRAM STARTED AT               2019-06-30 05:33:01.355
 ***** ** ***  *** **   PROGRAM STARTED ON        blg4310.int.ets1.calculquebec.
 **    ****   ******    PROGRAM STARTED BY                                   rzk
 ***** **    ** ** **   PROGRAM PROCESS ID                                424691
  **** **  *******  **  PROGRAM STARTED IN /scratch/rzk/rzk/GaN-carbene/443-adat
                                           oms-both-2x2/08-CH3O-H2O-H2C-H/02-Use
                                           -0701-H2CGa

 CP2K| version string:                    CP2K version 7.0 (Development Version)
 CP2K| source code revision number:                                    svn:18619
 CP2K| cp2kflags: libint fftw3 libxc parallel mpi3 scalapack mkl                
 CP2K| is freely available from                            https://www.cp2k.org/
 CP2K| Program compiled at                          Sun Apr  7 00:48:11 EDT 2019
 CP2K| Program compiled on                      beluga2.int.ets1.calculquebec.ca
 CP2K| Program compiled for                    Beluga-Linux-x86-64-intel-openmpi
 CP2K| Data directory path    /home/rzk/projects/def-rzk/group/cp2k/cp2k-mcgill/
 CP2K| Input file name                                                 start.inp
 
 GLOBAL| Force Environment number                                              1
 GLOBAL| Basis set file name                                        BASIS_MOLOPT
 GLOBAL| Potential file name                                      GTH_POTENTIALS
 GLOBAL| MM Potential file name                                     MM_POTENTIAL
 GLOBAL| Coordinate file name                                      __STD_INPUT__
 GLOBAL| Method name                                                        CP2K
 GLOBAL| Project name                                                       TEST
 GLOBAL| Preferred FFT library                                             FFTW3
 GLOBAL| Preferred diagonalization lib.                                       SL
 GLOBAL| Run type                                                        GEO_OPT
 GLOBAL| All-to-all communication in single precision                          F
 GLOBAL| FFTs using library dependent lengths                                  F
 GLOBAL| Global print level                                               MEDIUM
 GLOBAL| MPI I/O enabled                                                       T
 GLOBAL| Total number of message passing processes                            80
 GLOBAL| Number of threads for this process                                    1
 GLOBAL| This output is from process                                           0
 GLOBAL| CPU model name :  Intel(R) Xeon(R) Gold 6148 CPU @ 2.40GHz

 MEMORY| system memory details [Kb]
 MEMORY|                        rank 0           min           max       average
 MEMORY| MemTotal            196614300     196614300     196614300     196614300
 MEMORY| MemFree             174635976     160732176     174635976     167717270
 MEMORY| Buffers                    76            76            76            76
 MEMORY| Cached                1326776       1326776       1359744       1343260
 MEMORY| Slab                  3132524       2997088       3132524       3064806
 MEMORY| SReclaimable           584432        584432        783964        684198
 MEMORY| MemLikelyFree       176547260     162875960     176547260     169744804


 *** Fundamental physical constants (SI units) ***

 *** Literature: B. J. Mohr and B. N. Taylor,
 ***             CODATA recommended values of the fundamental physical
 ***             constants: 2006, Web Version 5.1
 ***             http://physics.nist.gov/constants

 Speed of light in vacuum [m/s]                             2.99792458000000E+08
 Magnetic constant or permeability of vacuum [N/A**2]       1.25663706143592E-06
 Electric constant or permittivity of vacuum [F/m]          8.85418781762039E-12
 Planck constant (h) [J*s]                                  6.62606896000000E-34
 Planck constant (h-bar) [J*s]                              1.05457162825177E-34
 Elementary charge [C]                                      1.60217648700000E-19
 Electron mass [kg]                                         9.10938215000000E-31
 Electron g factor [ ]                                     -2.00231930436220E+00
 Proton mass [kg]                                           1.67262163700000E-27
 Fine-structure constant                                    7.29735253760000E-03
 Rydberg constant [1/m]                                     1.09737315685270E+07
 Avogadro constant [1/mol]                                  6.02214179000000E+23
 Boltzmann constant [J/K]                                   1.38065040000000E-23
 Atomic mass unit [kg]                                      1.66053878200000E-27
 Bohr radius [m]                                            5.29177208590000E-11

 *** Conversion factors ***

 [u] -> [a.u.]                                              1.82288848426455E+03
 [Angstrom] -> [Bohr] = [a.u.]                              1.88972613288564E+00
 [a.u.] = [Bohr] -> [Angstrom]                              5.29177208590000E-01
 [a.u.] -> [s]                                              2.41888432650478E-17
 [a.u.] -> [fs]                                             2.41888432650478E-02
 [a.u.] -> [J]                                              4.35974393937059E-18
 [a.u.] -> [N]                                              8.23872205491840E-08
 [a.u.] -> [K]                                              3.15774647902944E+05
 [a.u.] -> [kJ/mol]                                         2.62549961709828E+03
 [a.u.] -> [kcal/mol]                                       6.27509468713739E+02
 [a.u.] -> [Pa]                                             2.94210107994716E+13
 [a.u.] -> [bar]                                            2.94210107994716E+08
 [a.u.] -> [atm]                                            2.90362800883016E+08
 [a.u.] -> [eV]                                             2.72113838565563E+01
 [a.u.] -> [Hz]                                             6.57968392072181E+15
 [a.u.] -> [1/cm] (wave numbers)                            2.19474631370540E+05
 [a.u./Bohr**2] -> [1/cm]                                   5.14048714338585E+03
 

 CELL_TOP| Volume [angstrom^3]:                                         4586.323
 CELL_TOP| Vector a [angstrom    12.864     0.000     0.000    |a| =      12.864
 CELL_TOP| Vector b [angstrom    -6.432    11.141     0.000    |b| =      12.864
 CELL_TOP| Vector c [angstrom     0.000     0.000    32.000    |c| =      32.000
 CELL_TOP| Angle (b,c), alpha [degree]:                                   90.000
 CELL_TOP| Angle (a,c), beta  [degree]:                                   90.000
 CELL_TOP| Angle (a,b), gamma [degree]:                                  120.000
 CELL_TOP| Numerically orthorhombic:                                          NO
 
 GENERATE|  Preliminary Number of Bonds generated:                             0
 GENERATE|  Achieved consistency in connectivity generation.

 CELL| Volume [angstrom^3]:                                             4586.323
 CELL| Vector a [angstrom]:      12.864     0.000     0.000    |a| =      12.864
 CELL| Vector b [angstrom]:      -6.432    11.141     0.000    |b| =      12.864
 CELL| Vector c [angstrom]:       0.000     0.000    32.000    |c| =      32.000
 CELL| Angle (b,c), alpha [degree]:                                       90.000
 CELL| Angle (a,c), beta  [degree]:                                       90.000
 CELL| Angle (a,b), gamma [degree]:                                      120.000
 CELL| Numerically orthorhombic:                                              NO

 CELL_REF| Volume [angstrom^3]:                                         4670.759
 CELL_REF| Vector a [angstrom    12.982     0.000     0.000    |a| =      12.982
 CELL_REF| Vector b [angstrom    -6.491    11.243     0.000    |b| =      12.982
 CELL_REF| Vector c [angstrom     0.000     0.000    32.000    |c| =      32.000
 CELL_REF| Angle (b,c), alpha [degree]:                                   90.000
 CELL_REF| Angle (a,c), beta  [degree]:                                   90.000
 CELL_REF| Angle (a,b), gamma [degree]:                                  120.000
 CELL_REF| Numerically orthorhombic:                                          NO

 *******************************************************************************
 *******************************************************************************
 **                                                                           **
 **     #####                         ##              ##                      **
 **    ##   ##            ##          ##              ##                      **
 **   ##     ##                       ##            ######                    **
 **   ##     ##  ##   ##  ##   #####  ##  ##   ####   ##    #####    #####    **
 **   ##     ##  ##   ##  ##  ##      ## ##   ##      ##   ##   ##  ##   ##   **
 **   ##  ## ##  ##   ##  ##  ##      ####     ###    ##   ######   ######    **
 **    ##  ###   ##   ##  ##  ##      ## ##      ##   ##   ##       ##        **
 **     #######   #####   ##   #####  ##  ##  ####    ##    #####   ##        **
 **           ##                                                    ##        **
 **                                                                           **
 **                                                ... make the atoms dance   **
 **                                                                           **
 **            Copyright (C) by CP2K developers group (2000 - 2018)           **
 **                                                                           **
 *******************************************************************************

 DFT| Spin unrestricted (spin-polarized) Kohn-Sham calculation               UKS
 DFT| Multiplicity                                                             1
 DFT| Number of spin states                                                    2
 DFT| Charge                                                                   0
 DFT| Self-interaction correction (SIC)                                       NO
 DFT| Cutoffs: density                                              1.000000E-10
 DFT|          gradient                                             1.000000E-10
 DFT|          tau                                                  1.000000E-10
 DFT|          cutoff_smoothing_range                               0.000000E+00
 DFT| XC density smoothing                                                  NONE
 DFT| XC derivatives                                                          PW
 FUNCTIONAL| ROUTINE=NEW
 FUNCTIONAL| PBE:
 FUNCTIONAL| J.P.Perdew, K.Burke, M.Ernzerhof, Phys. Rev. Letter, vol. 77, n 18,
 FUNCTIONAL|  pp. 3865-3868, (1996){spin polarized}                             
 vdW POTENTIAL|                                                   Pair Potential
 vdW POTENTIAL|          DFT-D3 (Version 3.1)
 vdW POTENTIAL|          Potential Form: S. Grimme et al, JCP 132: 154104 (2010)
 vdW POTENTIAL|          Zero Damping
 vdW POTENTIAL|          Cutoff Radius [Bohr]:                             18.90
 vdW POTENTIAL|          s6 Scaling Factor:                               1.0000
 vdW POTENTIAL|          sr6 Scaling Factor:                              1.2170
 vdW POTENTIAL|          s8 Scaling Factor:                               0.7220
 vdW POTENTIAL|          Cutoff for CN calculation:                   0.1000E-05

 QS| Method:                                                                 GPW
 QS| Density plane wave grid type                        NON-SPHERICAL FULLSPACE
 QS| Number of grid levels:                                                    5
 QS| Density cutoff [a.u.]:                                                600.0
 QS| Multi grid cutoff [a.u.]: 1) grid level                               600.0
 QS|                           2) grid level                               200.0
 QS|                           3) grid level                                66.7
 QS|                           4) grid level                                22.2
 QS|                           5) grid level                                 7.4
 QS| Grid level progression factor:                                          3.0
 QS| Relative density cutoff [a.u.]:                                        20.0
 QS| Consistent realspace mapping and integration 
 QS| Interaction thresholds: eps_pgf_orb:                                1.0E-07
 QS|                         eps_filter_matrix:                          0.0E+00
 QS|                         eps_core_charge:                            1.0E-16
 QS|                         eps_rho_gspace:                             1.0E-14
 QS|                         eps_rho_rspace:                             1.0E-14
 QS|                         eps_gvg_rspace:                             1.0E-07
 QS|                         eps_ppl:                                    1.0E-02
 QS|                         eps_ppnl:                                   1.0E-09


 ATOMIC KIND INFORMATION

  1. Atomic kind: N                                     Number of atoms:     100

     Orbital Basis Set                                        DZVP-MOLOPT-SR-GTH

       Number of orbital shell sets:                                           1
       Number of orbital shells:                                               5
       Number of primitive Cartesian functions:                                5
       Number of Cartesian basis functions:                                   14
       Number of spherical basis functions:                                   13
       Norm type:                                                              2

       Normalised Cartesian orbitals:

                        Set   Shell   Orbital            Exponent    Coefficient

                          1       1    2s                7.341988       0.360561
                                                         2.542637       0.139177
                                                         0.888575      -0.289383
                                                         0.333802      -0.182244
                                                         0.112012      -0.019197

                          1       2    3s                7.341988       0.282000
                                                         2.542637       0.177875
                                                         0.888575      -0.278381
                                                         0.333802       0.008577
                                                         0.112012       0.154176

                          1       3    3px               7.341988      -1.188719
                                                         2.542637      -0.973969
                                                         0.888575      -0.501079
                                                         0.333802      -0.144894
                                                         0.112012      -0.013986
                          1       3    3py               7.341988      -1.188719
                                                         2.542637      -0.973969
                                                         0.888575      -0.501079
                                                         0.333802      -0.144894
                                                         0.112012      -0.013986
                          1       3    3pz               7.341988      -1.188719
                                                         2.542637      -0.973969
                                                         0.888575      -0.501079
                                                         0.333802      -0.144894
                                                         0.112012      -0.013986

                          1       4    4px               7.341988      -0.094798
                                                         2.542637       0.050069
                                                         0.888575      -0.114797
                                                         0.333802       0.144793
                                                         0.112012       0.066710
                          1       4    4py               7.341988      -0.094798
                                                         2.542637       0.050069
                                                         0.888575      -0.114797
                                                         0.333802       0.144793
                                                         0.112012       0.066710
                          1       4    4pz               7.341988      -0.094798
                                                         2.542637       0.050069
                                                         0.888575      -0.114797
                                                         0.333802       0.144793
                                                         0.112012       0.066710

                          1       5    4dx2              7.341988       1.354688
                                                         2.542637       0.690378
                                                         0.888575       0.855359
                                                         0.333802       0.091746
                                                         0.112012       0.001253
                          1       5    4dxy              7.341988       2.346389
                                                         2.542637       1.195770
                                                         0.888575       1.481524
                                                         0.333802       0.158910
                                                         0.112012       0.002169
                          1       5    4dxz              7.341988       2.346389
                                                         2.542637       1.195770
                                                         0.888575       1.481524
                                                         0.333802       0.158910
                                                         0.112012       0.002169
                          1       5    4dy2              7.341988       1.354688
                                                         2.542637       0.690378
                                                         0.888575       0.855359
                                                         0.333802       0.091746
                                                         0.112012       0.001253
                          1       5    4dyz              7.341988       2.346389
                                                         2.542637       1.195770
                                                         0.888575       1.481524
                                                         0.333802       0.158910
                                                         0.112012       0.002169
                          1       5    4dz2              7.341988       1.354688
                                                         2.542637       0.690378
                                                         0.888575       0.855359
                                                         0.333802       0.091746
                                                         0.112012       0.001253

     GTH Potential information for                                    GTH-PBE-q5

       Description:                       Goedecker-Teter-Hutter pseudopotential
                                           Goedecker et al., PRB 54, 1703 (1996)
                                          Hartwigsen et al., PRB 58, 3641 (1998)
                                                      Krack, TCA 114, 145 (2005)

       Gaussian exponent of the core charge distribution:               6.208322
       Electronic configuration (s p d ...):                               2   3

       Parameters of the local part of the GTH pseudopotential:

                          rloc        C1          C2          C3          C4
                        0.283791  -12.415226    1.868096

       Parameters of the non-local part of the GTH pseudopotential:

                   l      r(l)      h(i,j,l)

                   0    0.255405   13.630263
                   1    0.245495

  2. Atomic kind: Ga                                    Number of atoms:     100

     Orbital Basis Set                                        DZVP-MOLOPT-SR-GTH

       Number of orbital shell sets:                                           1
       Number of orbital shells:                                               7
       Number of primitive Cartesian functions:                                6
       Number of Cartesian basis functions:                                   30
       Number of spherical basis functions:                                   25
       Norm type:                                                              2

       Normalised Cartesian orbitals:

                        Set   Shell   Orbital            Exponent    Coefficient

                          1       1    2s                7.066654       0.013136
                                                         3.428369      -0.094392
                                                         1.430064       0.265435
                                                         0.571611       0.056465
                                                         0.232197      -0.192187
                                                         0.076562      -0.044987

                          1       2    3s                7.066654      -0.098564
                                                         3.428369       0.010390
                                                         1.430064       0.351249
                                                         0.571611       0.182615
                                                         0.232197      -0.425358
                                                         0.076562       0.190349

                          1       3    3px               7.066654       0.002364
                                                         3.428369       0.019222
                                                         1.430064       0.250132
                                                         0.571611      -0.058486
                                                         0.232197      -0.159451
                                                         0.076562      -0.020696
                          1       3    3py               7.066654       0.002364
                                                         3.428369       0.019222
                                                         1.430064       0.250132
                                                         0.571611      -0.058486
                                                         0.232197      -0.159451
                                                         0.076562      -0.020696
                          1       3    3pz               7.066654       0.002364
                                                         3.428369       0.019222
                                                         1.430064       0.250132
                                                         0.571611      -0.058486
                                                         0.232197      -0.159451
                                                         0.076562      -0.020696

                          1       4    4px               7.066654       0.492448
                                                         3.428369      -0.614736
                                                         1.430064      -0.191654
                                                         0.571611       0.037801
                                                         0.232197       0.302315
                                                         0.076562      -0.071336
                          1       4    4py               7.066654       0.492448
                                                         3.428369      -0.614736
                                                         1.430064      -0.191654
                                                         0.571611       0.037801
                                                         0.232197       0.302315
                                                         0.076562      -0.071336
                          1       4    4pz               7.066654       0.492448
                                                         3.428369      -0.614736
                                                         1.430064      -0.191654
                                                         0.571611       0.037801
                                                         0.232197       0.302315
                                                         0.076562      -0.071336

                          1       5    4dx2              7.066654     -15.264855
                                                         3.428369      -5.345726
                                                         1.430064      -1.022732
                                                         0.571611      -0.123148
                                                         0.232197      -0.006983
                                                         0.076562      -0.000022
                          1       5    4dxy              7.066654     -26.439504
                                                         3.428369      -9.259069
                                                         1.430064      -1.771423
                                                         0.571611      -0.213299
                                                         0.232197      -0.012094
                                                         0.076562      -0.000037
                          1       5    4dxz              7.066654     -26.439504
                                                         3.428369      -9.259069
                                                         1.430064      -1.771423
                                                         0.571611      -0.213299
                                                         0.232197      -0.012094
                                                         0.076562      -0.000037
                          1       5    4dy2              7.066654     -15.264855
                                                         3.428369      -5.345726
                                                         1.430064      -1.022732
                                                         0.571611      -0.123148
                                                         0.232197      -0.006983
                                                         0.076562      -0.000022
                          1       5    4dyz              7.066654     -26.439504
                                                         3.428369      -9.259069
                                                         1.430064      -1.771423
                                                         0.571611      -0.213299
                                                         0.232197      -0.012094
                                                         0.076562      -0.000037
                          1       5    4dz2              7.066654     -15.264855
                                                         3.428369      -5.345726
                                                         1.430064      -1.022732
                                                         0.571611      -0.123148
                                                         0.232197      -0.006983
                                                         0.076562      -0.000022

                          1       6    5dx2              7.066654      -5.739265
                                                         3.428369      -2.129289
                                                         1.430064      -0.700423
                                                         0.571611       0.161606
                                                         0.232197       0.043513
                                                         0.076562       0.011205
                          1       6    5dxy              7.066654      -9.940698
                                                         3.428369      -3.688037
                                                         1.430064      -1.213168
                                                         0.571611       0.279909
                                                         0.232197       0.075368
                                                         0.076562       0.019407
                          1       6    5dxz              7.066654      -9.940698
                                                         3.428369      -3.688037
                                                         1.430064      -1.213168
                                                         0.571611       0.279909
                                                         0.232197       0.075368
                                                         0.076562       0.019407
                          1       6    5dy2              7.066654      -5.739265
                                                         3.428369      -2.129289
                                                         1.430064      -0.700423
                                                         0.571611       0.161606
                                                         0.232197       0.043513
                                                         0.076562       0.011205
                          1       6    5dyz              7.066654      -9.940698
                                                         3.428369      -3.688037
                                                         1.430064      -1.213168
                                                         0.571611       0.279909
                                                         0.232197       0.075368
                                                         0.076562       0.019407
                          1       6    5dz2              7.066654      -5.739265
                                                         3.428369      -2.129289
                                                         1.430064      -0.700423
                                                         0.571611       0.161606
                                                         0.232197       0.043513
                                                         0.076562       0.011205

                          1       7    5fx3              7.066654       0.705879
                                                         3.428369      -0.273976
                                                         1.430064       0.113667
                                                         0.571611       0.132480
                                                         0.232197       0.012437
                                                         0.076562       0.003241
                          1       7    5fx2y             7.066654       1.578393
                                                         3.428369      -0.612629
                                                         1.430064       0.254167
                                                         0.571611       0.296234
                                                         0.232197       0.027811
                                                         0.076562       0.007246
                          1       7    5fx2z             7.066654       1.578393
                                                         3.428369      -0.612629
                                                         1.430064       0.254167
                                                         0.571611       0.296234
                                                         0.232197       0.027811
                                                         0.076562       0.007246
                          1       7    5fxy2             7.066654       1.578393
                                                         3.428369      -0.612629
                                                         1.430064       0.254167
                                                         0.571611       0.296234
                                                         0.232197       0.027811
                                                         0.076562       0.007246
                          1       7    5fxyz             7.066654       2.733856
                                                         3.428369      -1.061105
                                                         1.430064       0.440230
                                                         0.571611       0.513092
                                                         0.232197       0.048170
                                                         0.076562       0.012551
                          1       7    5fxz2             7.066654       1.578393
                                                         3.428369      -0.612629
                                                         1.430064       0.254167
                                                         0.571611       0.296234
                                                         0.232197       0.027811
                                                         0.076562       0.007246
                          1       7    5fy3              7.066654       0.705879
                                                         3.428369      -0.273976
                                                         1.430064       0.113667
                                                         0.571611       0.132480
                                                         0.232197       0.012437
                                                         0.076562       0.003241
                          1       7    5fy2z             7.066654       1.578393
                                                         3.428369      -0.612629
                                                         1.430064       0.254167
                                                         0.571611       0.296234
                                                         0.232197       0.027811
                                                         0.076562       0.007246
                          1       7    5fyz2             7.066654       1.578393
                                                         3.428369      -0.612629
                                                         1.430064       0.254167
                                                         0.571611       0.296234
                                                         0.232197       0.027811
                                                         0.076562       0.007246
                          1       7    5fz3              7.066654       0.705879
                                                         3.428369      -0.273976
                                                         1.430064       0.113667
                                                         0.571611       0.132480
                                                         0.232197       0.012437
                                                         0.076562       0.003241

     GTH Potential information for                                   GTH-PBE-q13

       Description:                       Goedecker-Teter-Hutter pseudopotential
                                           Goedecker et al., PRB 54, 1703 (1996)
                                          Hartwigsen et al., PRB 58, 3641 (1998)
                                                      Krack, TCA 114, 145 (2005)

       Gaussian exponent of the core charge distribution:               2.082466
       Electronic configuration (s p d ...):                           2   1  10

       Parameters of the local part of the GTH pseudopotential:

                          rloc        C1          C2          C3          C4
                        0.490000

       Parameters of the non-local part of the GTH pseudopotential:

                   l      r(l)      h(i,j,l)

                   0    0.416777   10.475690   -4.921768    0.870706
                                   -4.921768    7.770178   -2.248152
                                    0.870706   -2.248152    1.784415
                   1    0.569627    1.777985    0.195860
                                    0.195860   -0.231744
                   2    0.238126  -16.248680

  3. Atomic kind: O                                     Number of atoms:       2

     Orbital Basis Set                                     DZVP-MOLOPT-SR-GTH-q6

       Number of orbital shell sets:                                           1
       Number of orbital shells:                                               5
       Number of primitive Cartesian functions:                                5
       Number of Cartesian basis functions:                                   14
       Number of spherical basis functions:                                   13
       Norm type:                                                              2

       Normalised Cartesian orbitals:

                        Set   Shell   Orbital            Exponent    Coefficient

                          1       1    2s               10.389228       0.396646
                                                         3.849621       0.208811
                                                         1.388401      -0.301641
                                                         0.496955      -0.274061
                                                         0.162492      -0.033677

                          1       2    3s               10.389228       0.303673
                                                         3.849621       0.240943
                                                         1.388401      -0.313066
                                                         0.496955      -0.043055
                                                         0.162492       0.213991

                          1       3    3px              10.389228      -1.530415
                                                         3.849621      -1.371928
                                                         1.388401      -0.761951
                                                         0.496955      -0.253695
                                                         0.162492      -0.035541
                          1       3    3py              10.389228      -1.530415
                                                         3.849621      -1.371928
                                                         1.388401      -0.761951
                                                         0.496955      -0.253695
                                                         0.162492      -0.035541
                          1       3    3pz              10.389228      -1.530415
                                                         3.849621      -1.371928
                                                         1.388401      -0.761951
                                                         0.496955      -0.253695
                                                         0.162492      -0.035541

                          1       4    4px              10.389228      -0.565392
                                                         3.849621      -0.038231
                                                         1.388401      -0.382373
                                                         0.496955       0.179070
                                                         0.162492       0.122714
                          1       4    4py              10.389228      -0.565392
                                                         3.849621      -0.038231
                                                         1.388401      -0.382373
                                                         0.496955       0.179070
                                                         0.162492       0.122714
                          1       4    4pz              10.389228      -0.565392
                                                         3.849621      -0.038231
                                                         1.388401      -0.382373
                                                         0.496955       0.179070
                                                         0.162492       0.122714

                          1       5    4dx2             10.389228       1.867377
                                                         3.849621       0.670994
                                                         1.388401       1.353441
                                                         0.496955       0.273538
                                                         0.162492       0.006620
                          1       5    4dxy             10.389228       3.234392
                                                         3.849621       1.162195
                                                         1.388401       2.344229
                                                         0.496955       0.473781
                                                         0.162492       0.011466
                          1       5    4dxz             10.389228       3.234392
                                                         3.849621       1.162195
                                                         1.388401       2.344229
                                                         0.496955       0.473781
                                                         0.162492       0.011466
                          1       5    4dy2             10.389228       1.867377
                                                         3.849621       0.670994
                                                         1.388401       1.353441
                                                         0.496955       0.273538
                                                         0.162492       0.006620
                          1       5    4dyz             10.389228       3.234392
                                                         3.849621       1.162195
                                                         1.388401       2.344229
                                                         0.496955       0.473781
                                                         0.162492       0.011466
                          1       5    4dz2             10.389228       1.867377
                                                         3.849621       0.670994
                                                         1.388401       1.353441
                                                         0.496955       0.273538
                                                         0.162492       0.006620

     GTH Potential information for                                    GTH-PBE-q6

       Description:                       Goedecker-Teter-Hutter pseudopotential
                                           Goedecker et al., PRB 54, 1703 (1996)
                                          Hartwigsen et al., PRB 58, 3641 (1998)
                                                      Krack, TCA 114, 145 (2005)

       Gaussian exponent of the core charge distribution:               8.360253
       Electronic configuration (s p d ...):                               2   4

       Parameters of the local part of the GTH pseudopotential:

                          rloc        C1          C2          C3          C4
                        0.244554  -16.667215    2.487311

       Parameters of the non-local part of the GTH pseudopotential:

                   l      r(l)      h(i,j,l)

                   0    0.220956   18.337458
                   1    0.211332

  4. Atomic kind: H                                     Number of atoms:       8

     Orbital Basis Set                                     DZVP-MOLOPT-SR-GTH-q1

       Number of orbital shell sets:                                           1
       Number of orbital shells:                                               3
       Number of primitive Cartesian functions:                                5
       Number of Cartesian basis functions:                                    5
       Number of spherical basis functions:                                    5
       Norm type:                                                              2

       Normalised Cartesian orbitals:

                        Set   Shell   Orbital            Exponent    Coefficient

                          1       1    2s               10.068468      -0.133023
                                                         2.680223      -0.177618
                                                         0.791502      -0.258419
                                                         0.239116      -0.107525
                                                         0.082193      -0.014019

                          1       2    3s               10.068468       0.344673
                                                         2.680223       1.819821
                                                         0.791502      -0.999069
                                                         0.239116       0.017430
                                                         0.082193       0.082660

                          1       3    3px              10.068468       0.155326
                                                         2.680223       0.367157
                                                         0.791502       0.311480
                                                         0.239116       0.080105
                                                         0.082193       0.033440
                          1       3    3py              10.068468       0.155326
                                                         2.680223       0.367157
                                                         0.791502       0.311480
                                                         0.239116       0.080105
                                                         0.082193       0.033440
                          1       3    3pz              10.068468       0.155326
                                                         2.680223       0.367157
                                                         0.791502       0.311480
                                                         0.239116       0.080105
                                                         0.082193       0.033440

     GTH Potential information for                                    GTH-PBE-q1

       Description:                       Goedecker-Teter-Hutter pseudopotential
                                           Goedecker et al., PRB 54, 1703 (1996)
                                          Hartwigsen et al., PRB 58, 3641 (1998)
                                                      Krack, TCA 114, 145 (2005)

       Gaussian exponent of the core charge distribution:              12.500000
       Electronic configuration (s p d ...):                                   1

       Parameters of the local part of the GTH pseudopotential:

                          rloc        C1          C2          C3          C4
                        0.200000   -4.178900    0.724463

  5. Atomic kind: C                                     Number of atoms:       2

     Orbital Basis Set                                     DZVP-MOLOPT-SR-GTH-q4

       Number of orbital shell sets:                                           1
       Number of orbital shells:                                               5
       Number of primitive Cartesian functions:                                5
       Number of Cartesian basis functions:                                   14
       Number of spherical basis functions:                                   13
       Norm type:                                                              2

       Normalised Cartesian orbitals:

                        Set   Shell   Orbital            Exponent    Coefficient

                          1       1    2s                5.605331       0.322515
                                                         2.113016       0.213043
                                                         0.769911      -0.209686
                                                         0.348157      -0.219794
                                                         0.128212      -0.022789

                          1       2    3s                5.605331       0.552234
                                                         2.113016       0.082072
                                                         0.769911       0.007843
                                                         0.348157       0.136893
                                                         0.128212       0.074283

                          1       3    3px               5.605331      -0.703879
                                                         2.113016      -0.642521
                                                         0.769911      -0.374851
                                                         0.348157      -0.139743
                                                         0.128212      -0.027849
                          1       3    3py               5.605331      -0.703879
                                                         2.113016      -0.642521
                                                         0.769911      -0.374851
                                                         0.348157      -0.139743
                                                         0.128212      -0.027849
                          1       3    3pz               5.605331      -0.703879
                                                         2.113016      -0.642521
                                                         0.769911      -0.374851
                                                         0.348157      -0.139743
                                                         0.128212      -0.027849

                          1       4    4px               5.605331      -0.480376
                                                         2.113016      -0.552894
                                                         0.769911      -0.316145
                                                         0.348157       0.210505
                                                         0.128212       0.076095
                          1       4    4py               5.605331      -0.480376
                                                         2.113016      -0.552894
                                                         0.769911      -0.316145
                                                         0.348157       0.210505
                                                         0.128212       0.076095
                          1       4    4pz               5.605331      -0.480376
                                                         2.113016      -0.552894
                                                         0.769911      -0.316145
                                                         0.348157       0.210505
                                                         0.128212       0.076095

                          1       5    4dx2              5.605331       0.640026
                                                         2.113016       0.274300
                                                         0.769911       0.446711
                                                         0.348157       0.028674
                                                         0.128212       0.029790
                          1       5    4dxy              5.605331       1.108557
                                                         2.113016       0.475102
                                                         0.769911       0.773726
                                                         0.348157       0.049666
                                                         0.128212       0.051599
                          1       5    4dxz              5.605331       1.108557
                                                         2.113016       0.475102
                                                         0.769911       0.773726
                                                         0.348157       0.049666
                                                         0.128212       0.051599
                          1       5    4dy2              5.605331       0.640026
                                                         2.113016       0.274300
                                                         0.769911       0.446711
                                                         0.348157       0.028674
                                                         0.128212       0.029790
                          1       5    4dyz              5.605331       1.108557
                                                         2.113016       0.475102
                                                         0.769911       0.773726
                                                         0.348157       0.049666
                                                         0.128212       0.051599
                          1       5    4dz2              5.605331       0.640026
                                                         2.113016       0.274300
                                                         0.769911       0.446711
                                                         0.348157       0.028674
                                                         0.128212       0.029790

     GTH Potential information for                                    GTH-PBE-q4

       Description:                       Goedecker-Teter-Hutter pseudopotential
                                           Goedecker et al., PRB 54, 1703 (1996)
                                          Hartwigsen et al., PRB 58, 3641 (1998)
                                                      Krack, TCA 114, 145 (2005)

       Gaussian exponent of the core charge distribution:               4.364419
       Electronic configuration (s p d ...):                               2   2

       Parameters of the local part of the GTH pseudopotential:

                          rloc        C1          C2          C3          C4
                        0.338471   -8.803674    1.339211

       Parameters of the non-local part of the GTH pseudopotential:

                   l      r(l)      h(i,j,l)

                   0    0.302576    9.622487
                   1    0.291507


 MOLECULE KIND INFORMATION


 All atoms are their own molecule, skipping detailed information


 TOTAL NUMBERS AND MAXIMUM NUMBERS

  Total number of            - Atomic kinds:                                   5
                             - Atoms:                                        212
                             - Shell sets:                                   212
                             - Shells:                                      1244
                             - Primitive Cartesian functions:               1160
                             - Cartesian basis functions:                   4496
                             - Spherical basis functions:                   3892

  Maximum angular momentum of- Orbital basis functions:                        3
                             - Local part of the GTH pseudopotential:          2
                             - Non-local part of the GTH pseudopotential:      4


 MODULE QUICKSTEP:  ATOMIC COORDINATES IN angstrom

  Atom  Kind  Element       X           Y           Z          Z(eff)       Mass

       1     1 N    7    0.002087    2.047186    2.509082      5.00      14.0067
       2     2 Ga  31   -0.029239    0.093287    2.860882     13.00      69.7230
       3     1 N    7   -0.001648    0.049792    5.025392      5.00      14.0067
       4     2 Ga  31   -0.004092    1.884344    5.807082     13.00      69.7230
       5     1 N    7   -0.005888    1.890881    7.808916      5.00      14.0067
       6     2 Ga  31   -0.007480    0.047785    8.448429     13.00      69.7230
       7     1 N    7   -0.005359    0.045880   10.423950      5.00      14.0067
       8     2 Ga  31   -0.005815    1.885544   11.072955     13.00      69.7230
       9     1 N    7   -0.006037    1.864868   13.074215      5.00      14.0067
      10     2 Ga  31   -0.004702    0.036110   13.865233     13.00      69.7230
      11     1 N    7   -0.005106    0.032944   16.074242      5.00      14.0067
      12     2 Ga  31   -0.005217    2.032334   16.434926     13.00      69.7230
      13     2 Ga  31    0.028029    3.770946    1.388788     13.00      69.7230
      14     1 N    7   -1.477064    4.620583    2.504278      5.00      14.0067
      15     2 Ga  31   -1.676567    2.789697    3.272574     13.00      69.7230
      16     1 N    7   -1.614615    2.831999    5.255286      5.00      14.0067
      17     2 Ga  31   -1.625875    4.699105    5.803682     13.00      69.7230
      18     1 N    7   -1.626056    4.696388    7.805321      5.00      14.0067
      19     2 Ga  31   -1.603886    2.838539    8.440489     13.00      69.7230
      20     1 N    7   -1.602269    2.839658   10.438757      5.00      14.0067
      21     2 Ga  31   -1.629230    4.698969   11.073063     13.00      69.7230
      22     1 N    7   -1.647732    4.708488   13.074282      5.00      14.0067
      23     2 Ga  31   -1.603576    2.838164   13.617475     13.00      69.7230
      24     1 N    7   -1.618913    2.828813   15.596852      5.00      14.0067
      25     2 Ga  31   -1.503341    4.625552   16.435019     13.00      69.7230
      26     1 N    7   -0.006392    3.761482   17.558869      5.00      14.0067
      27     1 N    7   -3.229879    7.596744    2.527541      5.00      14.0067
      28     2 Ga  31   -3.171891    5.587086    2.860231     13.00      69.7230
      29     1 N    7   -3.220103    5.617064    5.014545      5.00      14.0067
      30     2 Ga  31   -3.212516    7.437884    5.805862     13.00      69.7230
      31     1 N    7   -3.222366    7.464585    7.796714      5.00      14.0067
      32     2 Ga  31   -3.219931    5.617079    8.449566     13.00      69.7230
      33     1 N    7   -3.222651    5.618870   10.423889      5.00      14.0067
      34     2 Ga  31   -3.220252    7.459149   11.073106     13.00      69.7230
      35     1 N    7   -3.221880    7.440016   13.065763      5.00      14.0067
      36     2 Ga  31   -3.231020    5.623674   13.866335     13.00      69.7230
      37     1 N    7   -3.234160    5.624908   16.074287      5.00      14.0067
      38     2 Ga  31   -3.223499    7.681356   16.503841     13.00      69.7230
      39     2 Ga  31   -3.187661    9.348092    1.529616     13.00      69.7230
      40     1 N    7   -4.725900   10.191324    2.522155      5.00      14.0067
      41     2 Ga  31   -4.875506    8.383061    3.339450     13.00      69.7230
      42     1 N    7   -4.847247    8.393380    5.259455      5.00      14.0067
      43     2 Ga  31   -4.859768   10.287298    5.810951     13.00      69.7230
      44     1 N    7   -4.837395   10.263560    7.801271      5.00      14.0067
      45     2 Ga  31   -4.818454    8.409071    8.445464     13.00      69.7230
      46     1 N    7   -4.817828    8.409394   10.434520      5.00      14.0067
      47     2 Ga  31   -4.843171   10.268404   11.073076     13.00      69.7230
      48     1 N    7   -4.859596   10.276409   13.065809      5.00      14.0067
      49     2 Ga  31   -4.818312    8.409250   13.629472     13.00      69.7230
      50     1 N    7   -4.846368    8.393251   15.586784      5.00      14.0067
      51     2 Ga  31   -4.651048   10.154390   16.503753     13.00      69.7230
      52     1 N    7   -3.212808    9.336152   17.646946      5.00      14.0067
      53     1 N    7    3.192494    1.920011    2.612128      5.00      14.0067
      54     2 Ga  31    3.207862    0.184224    3.298838     13.00      69.7230
      55     1 N    7    3.210381    0.049459    5.256534      5.00      14.0067
      56     2 Ga  31    3.208885    1.916031    5.884405     13.00      69.7230
      57     1 N    7    3.215047    1.904839    7.859816      5.00      14.0067
      58     2 Ga  31    3.214026    0.038035    8.443669     13.00      69.7230
      59     1 N    7    3.211778    0.034116   10.437128      5.00      14.0067
      60     2 Ga  31    3.211285    1.902321   11.036556     13.00      69.7230
      61     1 N    7    3.208837    1.904130   13.010148      5.00      14.0067
      62     2 Ga  31    3.211082    0.032354   13.629506     13.00      69.7230
      63     1 N    7    3.203920    0.069072   15.588575      5.00      14.0067
      64     2 Ga  31    3.212467    1.902956   15.865761     13.00      69.7230
      65     1 N    7    1.476452    4.614658    2.544575      5.00      14.0067
      66     2 Ga  31    1.675725    2.806363    3.306006     13.00      69.7230
      67     1 N    7    1.605535    2.831385    5.274538      5.00      14.0067
      68     2 Ga  31    1.644020    4.713248    5.819344     13.00      69.7230
      69     1 N    7    1.603209    4.689460    7.834036      5.00      14.0067
      70     2 Ga  31    1.591808    2.838043    8.449463     13.00      69.7230
      71     1 N    7    1.592521    2.835366   10.447124      5.00      14.0067
      72     2 Ga  31    1.618867    4.699563   11.068897     13.00      69.7230
      73     1 N    7    1.636204    4.708744   13.073027      5.00      14.0067
      74     2 Ga  31    1.591348    2.839337   13.617332     13.00      69.7230
      75     1 N    7    1.607626    2.829165   15.596827      5.00      14.0067
      76     2 Ga  31    1.492106    4.625108   16.434955     13.00      69.7230
      77     1 N    7    0.011795    7.457293    2.613835      5.00      14.0067
      78     2 Ga  31    0.019834    5.702379    3.301885     13.00      69.7230
      79     1 N    7   -0.004096    5.620651    5.271024      5.00      14.0067
      80     2 Ga  31    0.013334    7.471824    5.871058     13.00      69.7230
      81     1 N    7   -0.001640    7.478219    7.852130      5.00      14.0067
      82     2 Ga  31   -0.006000    5.608272    8.445162     13.00      69.7230
      83     1 N    7   -0.008465    5.607938   10.444428      5.00      14.0067
      84     2 Ga  31   -0.006291    7.476605   11.033402     13.00      69.7230
      85     1 N    7   -0.006183    7.472840   13.008112      5.00      14.0067
      86     2 Ga  31   -0.005055    5.604737   13.617018     13.00      69.7230
      87     1 N    7   -0.005341    5.623372   15.596906      5.00      14.0067
      88     2 Ga  31   -0.005672    7.476001   15.866299     13.00      69.7230
      89     1 N    7   -1.713353   10.202800    2.542160      5.00      14.0067
      90     2 Ga  31   -1.484418    8.333244    3.296179     13.00      69.7230
      91     1 N    7   -1.611138    8.402257    5.253686      5.00      14.0067
      92     2 Ga  31   -1.586252   10.275477    5.804782     13.00      69.7230
      93     1 N    7   -1.603369   10.265905    7.799915      5.00      14.0067
      94     2 Ga  31   -1.617624    8.408928    8.438508     13.00      69.7230
      95     1 N    7   -1.624552    8.410295   10.433890      5.00      14.0067
      96     2 Ga  31   -1.596644   10.268860   11.075747     13.00      69.7230
      97     1 N    7   -1.580672   10.278440   13.070552      5.00      14.0067
      98     2 Ga  31   -1.625721    8.410262   13.629252     13.00      69.7230
      99     1 N    7   -1.597673    8.385857   15.588374      5.00      14.0067
     100     2 Ga  31   -1.779400   10.163838   16.502426     13.00      69.7230
     101     1 N    7    6.422920    2.029498    2.542777      5.00      14.0067
     102     2 Ga  31    6.453873    0.039318    2.879907     13.00      69.7230
     103     1 N    7    6.425926    0.050853    5.025088      5.00      14.0067
     104     2 Ga  31    6.422553    1.880440    5.803048     13.00      69.7230
     105     1 N    7    6.426676    1.893094    7.799723      5.00      14.0067
     106     2 Ga  31    6.430851    0.047124    8.446145     13.00      69.7230
     107     1 N    7    6.427770    0.047799   10.422419      5.00      14.0067
     108     2 Ga  31    6.429442    1.885275   11.079144     13.00      69.7230
     109     1 N    7    6.428445    1.866677   13.072970      5.00      14.0067
     110     2 Ga  31    6.427131    0.047653   13.886164     13.00      69.7230
     111     1 N    7    6.426071    0.047136   16.076878      5.00      14.0067
     112     2 Ga  31    6.426213    2.096529   16.503836     13.00      69.7230
     113     2 Ga  31    6.451218    3.709471    1.494074     13.00      69.7230
     114     1 N    7    4.919977    4.637812    2.414421      5.00      14.0067
     115     2 Ga  31    4.691913    2.804119    3.287412     13.00      69.7230
     116     1 N    7    4.821204    2.845214    5.246875      5.00      14.0067
     117     2 Ga  31    4.765526    4.713591    5.839569     13.00      69.7230
     118     1 N    7    4.826059    4.688280    7.835890      5.00      14.0067
     119     2 Ga  31    4.832628    2.834382    8.456750     13.00      69.7230
     120     1 N    7    4.831167    2.835169   10.448030      5.00      14.0067
     121     2 Ga  31    4.804040    4.698551   11.073544     13.00      69.7230
     122     1 N    7    4.789809    4.707208   13.067676      5.00      14.0067
     123     2 Ga  31    4.831667    2.839713   13.629027     13.00      69.7230
     124     1 N    7    4.796173    2.826625   15.588328      5.00      14.0067
     125     2 Ga  31    4.999623    4.586698   16.504537     13.00      69.7230
     126     1 N    7    6.426364    3.750908   17.649793      5.00      14.0067
     127     1 N    7    3.216596    7.591579    2.393898      5.00      14.0067
     128     1 N    7    3.217479    5.617445    5.171176      5.00      14.0067
     129     2 Ga  31    3.205244    7.421498    5.821193     13.00      69.7230
     130     1 N    7    3.213785    7.480527    7.827142      5.00      14.0067
     131     2 Ga  31    3.209923    5.620075    8.442467     13.00      69.7230
     132     1 N    7    3.212448    5.619169   10.426775      5.00      14.0067
     133     2 Ga  31    3.210507    7.458242   11.072267     13.00      69.7230
     134     1 N    7    3.211652    7.440266   13.067251      5.00      14.0067
     135     2 Ga  31    3.220760    5.623062   13.863357     13.00      69.7230
     136     1 N    7    3.223036    5.624360   16.074636      5.00      14.0067
     137     2 Ga  31    3.212573    7.679107   16.500340     13.00      69.7230
     138     2 Ga  31    3.176457    9.416810    1.293392     13.00      69.7230
     139     1 N    7    1.710941   10.201687    2.528123      5.00      14.0067
     140     2 Ga  31    1.547786    8.333101    3.245177     13.00      69.7230
     141     1 N    7    1.616175    8.400068    5.229109      5.00      14.0067
     142     2 Ga  31    1.586067   10.265163    5.789414     13.00      69.7230
     143     1 N    7    1.592648   10.265660    7.793274      5.00      14.0067
     144     2 Ga  31    1.612354    8.414080    8.448817     13.00      69.7230
     145     1 N    7    1.611248    8.412612   10.443746      5.00      14.0067
     146     2 Ga  31    1.588081   10.270814   11.077330     13.00      69.7230
     147     1 N    7    1.570994   10.279682   13.072331      5.00      14.0067
     148     2 Ga  31    1.615065    8.410119   13.627526     13.00      69.7230
     149     1 N    7    1.586637    8.385835   15.587965      5.00      14.0067
     150     2 Ga  31    1.765588   10.164801   16.499652     13.00      69.7230
     151     1 N    7    3.200887    9.336191   17.642818      5.00      14.0067
     152     1 N    7    9.655993    1.906105    2.625396      5.00      14.0067
     153     2 Ga  31    9.651229    0.144412    3.272156     13.00      69.7230
     154     1 N    7    9.647084    0.048700    5.248571      5.00      14.0067
     155     2 Ga  31    9.652644    1.903015    5.872559     13.00      69.7230
     156     1 N    7    9.643011    1.904479    7.851246      5.00      14.0067
     157     2 Ga  31    9.642637    0.035038    8.432557     13.00      69.7230
     158     1 N    7    9.643171    0.034561   10.431327      5.00      14.0067
     159     2 Ga  31    9.642617    1.903655   11.027125     13.00      69.7230
     160     1 N    7    9.644801    1.905044   13.002979      5.00      14.0067
     161     2 Ga  31    9.643304    0.034729   13.629138     13.00      69.7230
     162     1 N    7    9.649642    0.069781   15.589187      5.00      14.0067
     163     2 Ga  31    9.641334    1.903294   15.869847     13.00      69.7230
     164     1 N    7    7.916006    4.638676    2.523370      5.00      14.0067
     165     2 Ga  31    8.151323    2.768828    3.302677     13.00      69.7230
     166     1 N    7    8.035317    2.836605    5.258825      5.00      14.0067
     167     2 Ga  31    8.063179    4.707015    5.801768     13.00      69.7230
     168     1 N    7    8.043881    4.699971    7.795153      5.00      14.0067
     169     2 Ga  31    8.026166    2.837738    8.436618     13.00      69.7230
     170     1 N    7    8.023857    2.839802   10.433018      5.00      14.0067
     171     2 Ga  31    8.051021    4.696485   11.077079     13.00      69.7230
     172     1 N    7    8.065914    4.706551   13.068651      5.00      14.0067
     173     2 Ga  31    8.024359    2.838936   13.630377     13.00      69.7230
     174     1 N    7    8.057975    2.826319   15.589331      5.00      14.0067
     175     2 Ga  31    7.853303    4.586632   16.505233     13.00      69.7230
     176     1 N    7    6.416261    7.477641    2.603214      5.00      14.0067
     177     2 Ga  31    6.382624    5.657346    3.317916     13.00      69.7230
     178     1 N    7    6.419560    5.630277    5.241338      5.00      14.0067
     179     2 Ga  31    6.407697    7.473897    5.902157     13.00      69.7230
     180     1 N    7    6.424495    7.474219    7.859543      5.00      14.0067
     181     2 Ga  31    6.431032    5.604454    8.459531     13.00      69.7230
     182     1 N    7    6.431328    5.607967   10.446108      5.00      14.0067
     183     2 Ga  31    6.429040    7.476604   11.038032     13.00      69.7230
     184     1 N    7    6.428116    7.475248   13.006052      5.00      14.0067
     185     2 Ga  31    6.427339    5.605312   13.629129     13.00      69.7230
     186     1 N    7    6.426918    5.637247   15.586931      5.00      14.0067
     187     2 Ga  31    6.427096    7.474167   15.864010     13.00      69.7230
     188     1 N    7    4.721581   10.196142    2.509716      5.00      14.0067
     189     2 Ga  31    4.794891    8.380497    3.281860     13.00      69.7230
     190     1 N    7    4.824887    8.391899    5.224054      5.00      14.0067
     191     2 Ga  31    4.845070   10.274164    5.792641     13.00      69.7230
     192     1 N    7    4.831580   10.261879    7.792713      5.00      14.0067
     193     2 Ga  31    4.805913    8.414414    8.456597     13.00      69.7230
     194     1 N    7    4.811898    8.411683   10.444938      5.00      14.0067
     195     2 Ga  31    4.832235   10.270317   11.075265     13.00      69.7230
     196     1 N    7    4.849193   10.277899   13.067955      5.00      14.0067
     197     2 Ga  31    4.808386    8.409385   13.627846     13.00      69.7230
     198     1 N    7    4.835705    8.393293   15.586490      5.00      14.0067
     199     2 Ga  31    4.641746   10.154980   16.501060     13.00      69.7230
     200     3 O    8    0.651099    3.987025   -0.360519      6.00      15.9994
     201     4 H    1    2.505737    6.455118   -0.101748      1.00       1.0079
     202     5 C    6    0.979722    2.781606   -1.083078      4.00      12.0107
     203     4 H    1    1.711271    2.163638   -0.536589      1.00       1.0079
     204     4 H    1    0.081645    2.176366   -1.277073      1.00       1.0079
     205     4 H    1    1.414588    3.076307   -2.048470      1.00       1.0079
     206     2 Ga  31    3.138370    5.598108    2.260454     13.00      69.7230
     207     3 O    8    2.813014    5.553807    0.106664      6.00      15.9994
     208     4 H    1    2.009618    4.950378   -0.085360      1.00       1.0079
     209     5 C    6    3.089928    9.356965   -0.547905      4.00      12.0107
     210     4 H    1    9.695575    1.956159    1.627434      1.00       1.0079
     211     4 H    1    3.992019    9.864467   -0.920596      1.00       1.0079
     212     4 H    1    2.205002    8.851232   -0.961743      1.00       1.0079




 SCF PARAMETERS         Density guess:                                    ATOMIC
                        --------------------------------------------------------
                        max_scf:                                              80
                        max_scf_history:                                       0
                        max_diis:                                              4
                        --------------------------------------------------------
                        eps_scf:                                        5.00E-06
                        eps_scf_history:                                0.00E+00
                        eps_diis:                                       1.00E-01
                        eps_eigval:                                     1.00E-05
                        --------------------------------------------------------
                        level_shift [a.u.]:                                 0.00
                        --------------------------------------------------------
                        Outer loop SCF in use 
                        No variables optimised in outer loop
                        eps_scf                                         5.00E-06
                        max_scf                                                4
                        No outer loop optimization
                        step_size                                       5.00E-01

 PW_GRID| Information for grid number                                          1
 PW_GRID| Grid distributed over                                    80 processors
 PW_GRID| Real space group dimensions                                    80    1
 PW_GRID| the grid is blocked:                                                NO
 PW_GRID| Cutoff [a.u.]                                                    600.0
 PW_GRID| spherical cutoff:                                                   NO
 PW_GRID|   Bounds   1           -144     143                Points:         288
 PW_GRID|   Bounds   2           -144     143                Points:         288
 PW_GRID|   Bounds   3           -337     337                Points:         675
 PW_GRID| Volume element (a.u.^3)  0.5630E-03     Volume (a.u.^3)     31519.8467
 PW_GRID| Grid span                                                    FULLSPACE
 PW_GRID|   Distribution                         Average         Max         Min
 PW_GRID|   G-Vectors                           699840.0      699840      699840
 PW_GRID|   G-Rays                                2430.0        2430        2430
 PW_GRID|   Real Space Points                   699840.0      777600      583200

 PW_GRID| Information for grid number                                          2
 PW_GRID| Grid distributed over                                    80 processors
 PW_GRID| Real space group dimensions                                    80    1
 PW_GRID| the grid is blocked:                                                NO
 PW_GRID| Cutoff [a.u.]                                                    200.0
 PW_GRID| spherical cutoff:                                                   NO
 PW_GRID|   Bounds   1            -80      79                Points:         160
 PW_GRID|   Bounds   2            -80      79                Points:         160
 PW_GRID|   Bounds   3           -200     199                Points:         400
 PW_GRID| Volume element (a.u.^3)  0.3078E-02     Volume (a.u.^3)     31519.8467
 PW_GRID| Grid span                                                    FULLSPACE
 PW_GRID|   Distribution                         Average         Max         Min
 PW_GRID|   G-Vectors                           128000.0      128160      127840
 PW_GRID|   G-Rays                                 800.0         801         799
 PW_GRID|   Real Space Points                   128000.0      128000      128000

 PW_GRID| Information for grid number                                          3
 PW_GRID| Grid distributed over                                    80 processors
 PW_GRID| Real space group dimensions                                    80    1
 PW_GRID| the grid is blocked:                                                NO
 PW_GRID| Cutoff [a.u.]                                                     66.7
 PW_GRID| spherical cutoff:                                                   NO
 PW_GRID|   Bounds   1            -48      47                Points:          96
 PW_GRID|   Bounds   2            -48      47                Points:          96
 PW_GRID|   Bounds   3           -112     112                Points:         225
 PW_GRID| Volume element (a.u.^3)  0.1520E-01     Volume (a.u.^3)     31519.8467
 PW_GRID| Grid span                                                    FULLSPACE
 PW_GRID|   Distribution                         Average         Max         Min
 PW_GRID|   G-Vectors                            25920.0       26688       24864
 PW_GRID|   G-Rays                                 270.0         278         259
 PW_GRID|   Real Space Points                    25920.0       43200       21600

 PW_GRID| Information for grid number                                          4
[...]
 flops    13 x    25 x    50         539965010000     100.0%      0.0%      0.0%
 flops    25 x    13 x    50         540805265000     100.0%      0.0%      0.0%
 flops   242 x    64 x   178         689171890176     100.0%      0.0%      0.0%
 flops   242 x    64 x   183         708530651136     100.0%      0.0%      0.0%
 flops   973 x    32 x    50         726228518400     100.0%      0.0%      0.0%
 flops   973 x    50 x    32         726228518400     100.0%      0.0%      0.0%
 flops   242 x    64 x   195         754991677440     100.0%      0.0%      0.0%
 flops    25 x    18 x    13         759097310400     100.0%      0.0%      0.0%
 flops    13 x    18 x    25         759097310400     100.0%      0.0%      0.0%
 flops   242 x    32 x    32         807789649920     100.0%      0.0%      0.0%
 flops   955 x    32 x   178         828136883200     100.0%      0.0%      0.0%
 flops   955 x    32 x   183         851399155200     100.0%      0.0%      0.0%
 flops   991 x    32 x   178         859354608640     100.0%      0.0%      0.0%
 flops   991 x    32 x   183         883493783040     100.0%      0.0%      0.0%
 flops   955 x    32 x   195         907228608000     100.0%      0.0%      0.0%
 flops   991 x    32 x   195         941427801600     100.0%      0.0%      0.0%
 flops    25 x    25 x    50        1037775000000     100.0%      0.0%      0.0%
 flops   973 x    64 x    50        1056332390400     100.0%      0.0%      0.0%
 flops   973 x    50 x    64        1056332390400     100.0%      0.0%      0.0%
 flops     5 x    32 x    25        1072821344000     100.0%      0.0%      0.0%
 flops    25 x    32 x     5        1072821344000     100.0%      0.0%      0.0%
 flops   242 x    64 x    32        1174966763520     100.0%      0.0%      0.0%
 flops   242 x    32 x    64        1174966763520     100.0%      0.0%      0.0%
 flops   955 x    64 x   178        1204562739200     100.0%      0.0%      0.0%
 flops   955 x    64 x   183        1238398771200     100.0%      0.0%      0.0%
 flops   991 x    64 x   178        1249970339840     100.0%      0.0%      0.0%
 flops   991 x    64 x   183        1285081866240     100.0%      0.0%      0.0%
 flops   224 x    32 x   178        1315691790336     100.0%      0.0%      0.0%
 flops   955 x    64 x   195        1319605248000     100.0%      0.0%      0.0%
 flops   224 x    32 x   183        1352649424896     100.0%      0.0%      0.0%
 flops   991 x    64 x   195        1369349529600     100.0%      0.0%      0.0%
 flops   224 x    32 x   195        1441347747840     100.0%      0.0%      0.0%
 flops    25 x    18 x    25        1443375000000     100.0%      0.0%      0.0%
 flops   973 x    32 x   178        1687491491840     100.0%      0.0%      0.0%
 flops   242 x    64 x    64        1709042565120     100.0%      0.0%      0.0%
 flops   973 x    32 x   183        1734892938240     100.0%      0.0%      0.0%
 flops   973 x    32 x   195        1848656409600     100.0%      0.0%      0.0%
 flops   224 x    64 x   178        1913733513216     100.0%      0.0%      0.0%
 flops    13 x    13 x    32        1920759251840     100.0%      0.0%      0.0%
 flops   224 x    64 x   183        1967490072576     100.0%      0.0%      0.0%
 flops   224 x    64 x   195        2096505815040     100.0%      0.0%      0.0%
 flops   224 x    32 x    32        2243118366720     100.0%      0.0%      0.0%
 flops   973 x    64 x   178        2454533079040     100.0%      0.0%      0.0%
 flops   955 x    32 x    32        2509033697280     100.0%      0.0%      0.0%
 flops   973 x    64 x   183        2523480637440     100.0%      0.0%      0.0%
 flops   991 x    32 x    32        2603615072256     100.0%      0.0%      0.0%
 flops   973 x    64 x   195        2688954777600     100.0%      0.0%      0.0%
 flops    13 x    13 x    64        2793831639040     100.0%      0.0%      0.0%
 flops   224 x    32 x    64        3262717624320     100.0%      0.0%      0.0%
 flops   224 x    64 x    32        3262717624320     100.0%      0.0%      0.0%
 flops   955 x    32 x    64        3649503559680     100.0%      0.0%      0.0%
 flops   955 x    64 x    32        3649503559680     100.0%      0.0%      0.0%
 flops   991 x    32 x    64        3787076468736     100.0%      0.0%      0.0%
 flops   991 x    64 x    32        3787076468736     100.0%      0.0%      0.0%
 flops    13 x    25 x    32        3801353670400     100.0%      0.0%      0.0%
 flops    25 x    13 x    32        3807269065600     100.0%      0.0%      0.0%
 flops   224 x    64 x    64        4745771089920     100.0%      0.0%      0.0%
 flops   973 x    32 x    32        5112648769536     100.0%      0.0%      0.0%
 flops   955 x    64 x    64        5308368814080     100.0%      0.0%      0.0%
 flops   991 x    64 x    64        5508474863616     100.0%      0.0%      0.0%
 flops    13 x    25 x    64        5529241702400     100.0%      0.0%      0.0%
 flops    25 x    13 x    64        5537845913600     100.0%      0.0%      0.0%
 flops    25 x    25 x    32        7305936000000     100.0%      0.0%      0.0%
 flops   973 x    64 x    32        7436580028416     100.0%      0.0%      0.0%
 flops   973 x    32 x    64        7436580028416     100.0%      0.0%      0.0%
 flops    25 x    25 x    64       10626816000000     100.0%      0.0%      0.0%
 flops   973 x    64 x    64       10816843677696     100.0%      0.0%      0.0%
 flops    13 x    32 x    13       18875885310464     100.0%      0.0%      0.0%
 flops    25 x    32 x    13       37786177228800     100.0%      0.0%      0.0%
 flops    13 x    32 x    25       37786177228800     100.0%      0.0%      0.0%
 flops    25 x    32 x    25       71848000000000     100.0%      0.0%      0.0%
 flops inhomo. stacks             126039336574144     100.0%      0.0%      0.0%
 flops total                       474.698159E+12     100.0%      0.0%      0.0%
 flops max/rank                      8.241241E+12     100.0%      0.0%      0.0%
 matmuls inhomo. stacks                  12624640     100.0%      0.0%      0.0%
 matmuls total                         9400290994     100.0%      0.0%      0.0%
 number of processed stacks             171345096     100.0%      0.0%      0.0%
 average stack size                                    54.9       0.0       0.0
 marketing flops                   506.846473E+12
 -------------------------------------------------------------------------------
 # multiplications                          45383
 max memory usage/rank               1.555747E+09
 # max total images/rank                        5
 # max 3D layers                                1
 # MPI messages exchanged               413892960
 MPI messages size (bytes):
  total size                        50.334806E+12
  min size                           0.000000E+00
  max size                           1.894792E+06
  average size                     121.613102E+03
 MPI breakdown and total messages size (bytes):
             size <=      128             2745120                        0
       128 < size <=     8192            55376640             453645434880
      8192 < size <=    32768           127634400            2603762188800
     32768 < size <=   131072           179884400           13051768787840
    131072 < size <=  4194304            48252400           34153331209264
   4194304 < size <= 16777216                   0                        0
  16777216 < size                               0                        0
 -------------------------------------------------------------------------------

 *** WARNING in dbcsr/mm/dbcsr_mm.F:268 :: Using a non-square number of ***
 *** MPI ranks might lead to poor performance.                          ***
 *** Used ranks: 80                                                     ***
 *** Suggested: 81 169                                                  ***

 -------------------------------------------------------------------------------
 
 MEMORY| Estimated peak process memory [MiB]                                1509

 -------------------------------------------------------------------------------
 ----                             MULTIGRID INFO                            ----
 -------------------------------------------------------------------------------
 count for grid        1:        1232903          cutoff [a.u.]          600.00
 count for grid        2:        9623670          cutoff [a.u.]          200.00
 count for grid        3:        8800129          cutoff [a.u.]           66.67
 count for grid        4:       13190276          cutoff [a.u.]           22.22
 count for grid        5:       12083177          cutoff [a.u.]            7.41
 total gridlevel count  :       44930155

 -------------------------------------------------------------------------------
 -                                                                             -
 -                         MESSAGE PASSING PERFORMANCE                         -
 -                                                                             -
 -------------------------------------------------------------------------------

 ROUTINE             CALLS      AVE VOLUME [Bytes]
 MP_Group             4356
 MP_Bcast            67277                  15245.
 MP_Allreduce       415509                    273.
 MP_Sync              2040
 MP_Alltoall        250289                5377881.
 MP_SendRecv         25912                   5920.
 MP_ISendRecv      1149450                 133520.
 MP_Wait          10077460
 MP_comm_split        2035
 MP_ISend         11619056                 115047.
 MP_IRecv         11622516                 114951.
 MP_Recv              1539                 162816.
 MP_Memory         5053462
 -------------------------------------------------------------------------------


 -------------------------------------------------------------------------------
 -                                                                             -
 -                           R E F E R E N C E S                               -
 -                                                                             -
 -------------------------------------------------------------------------------
 
 CP2K version 7.0 (Development Version), the CP2K developers group (2018).
 CP2K is freely available from https://www.cp2k.org/ .

 Schuett, Ole; Messmer, Peter; Hutter, Juerg; VandeVondele, Joost. 
 Electronic Structure Calculations on Graphics Processing Units, John Wiley & Sons, Ltd, 173-190 (2016). 
 GPU-Accelerated Sparse Matrix-Matrix Multiplication for Linear Scaling Density Functional Theory.
 http://dx.doi.org/10.1002/9781118670712.ch8


 Borstnik, U; VandeVondele, J; Weber, V; Hutter, J. 
 PARALLEL COMPUTING, 40 (5-6), 47-58 (2014). 
 Sparse matrix multiplication: The distributed block-compressed sparse
 row library.
 http://dx.doi.org/10.1016/j.parco.2014.03.012


 Hutter, J; Iannuzzi, M; Schiffmann, F; VandeVondele, J. 
 WILEY INTERDISCIPLINARY REVIEWS-COMPUTATIONAL MOLECULAR SCIENCE, 4 (1), 15-25 (2014). 
 CP2K: atomistic simulations of condensed matter systems.
 http://dx.doi.org/10.1002/wcms.1159


 Grimme, S; Ehrlich, S; Goerigk, L. 
 JOURNAL OF COMPUTATIONAL CHEMISTRY, 32, 1456 (2011). 
 Effect of the damping function in dispersion corrected density functional theory.
 http://dx.doi.org/10.1002/jcc.21759


 Grimme, S; Antony, J; Ehrlich, S; Krieg, H. 
 JOURNAL OF CHEMICAL PHYSICS, 132 (15), 154104 (2010). 
 A consistent and accurate ab initio parametrization of density
 functional dispersion correction (DFT-D) for the 94 elements H-Pu.
 http://dx.doi.org/10.1063/1.3382344


 VandeVondele, J; Hutter, J. 
 JOURNAL OF CHEMICAL PHYSICS, 127 (11), 114105 (2007). 
 Gaussian basis sets for accurate calculations on molecular systems in
 gas and condensed phases.
 http://dx.doi.org/10.1063/1.2770708


 Krack, M. 
 THEORETICAL CHEMISTRY ACCOUNTS, 114 (1-3), 145-152 (2005). 
 Pseudopotentials for H to Kr optimized for gradient-corrected
 exchange-correlation functionals.
 http://dx.doi.org/10.1007/s00214-005-0655-y


 VandeVondele, J; Krack, M; Mohamed, F; Parrinello, M; Chassaing, T;
 Hutter, J. COMPUTER PHYSICS COMMUNICATIONS, 167 (2), 103-128 (2005). 
 QUICKSTEP: Fast and accurate density functional calculations using a
 mixed Gaussian and plane waves approach.
 http://dx.doi.org/10.1016/j.cpc.2004.12.014


 Frigo, M; Johnson, SG. 
 PROCEEDINGS OF THE IEEE, 93 (2), 216-231 (2005). 
 The design and implementation of FFTW3.
 http://dx.doi.org/10.1109/JPROC.2004.840301


 Kolafa, J. 
 JOURNAL OF COMPUTATIONAL CHEMISTRY, 25 (3), 335-342 (2004). 
 Time-reversible always stable predictor-corrector method for molecular dynamics of polarizable molecules.
 http://dx.doi.org/10.1002/jcc.10385


 VandeVondele, J; Hutter, J. 
 JOURNAL OF CHEMICAL PHYSICS, 118 (10), 4365-4369 (2003). 
 An efficient orbital transformation method for electronic structure
 calculations.
 http://dx.doi.org/10.1063/1.1543154


 Hartwigsen, C; Goedecker, S; Hutter, J. 
 PHYSICAL REVIEW B, 58 (7), 3641-3662 (1998). 
 Relativistic separable dual-space Gaussian pseudopotentials from H to Rn.
 http://dx.doi.org/10.1103/PhysRevB.58.3641


 Lippert, G; Hutter, J; Parrinello, M. 
 MOLECULAR PHYSICS, 92 (3), 477-487 (1997). 
 A hybrid Gaussian and plane wave density functional scheme.
 http://dx.doi.org/10.1080/002689797170220


 Perdew, JP; Burke, K; Ernzerhof, M. 
 PHYSICAL REVIEW LETTERS, 77 (18), 3865-3868 (1996). 
 Generalized gradient approximation made simple.
 http://dx.doi.org/10.1103/PhysRevLett.77.3865


 Goedecker, S; Teter, M; Hutter, J. 
 PHYSICAL REVIEW B, 54 (3), 1703-1710 (1996). 
 Separable dual-space Gaussian pseudopotentials.
 http://dx.doi.org/10.1103/PhysRevB.54.1703


 -------------------------------------------------------------------------------
 -                                                                             -
 -                                T I M I N G                                  -
 -                                                                             -
 -------------------------------------------------------------------------------
 SUBROUTINE                       CALLS  ASD         SELF TIME        TOTAL TIME
                                MAXIMUM       AVERAGE  MAXIMUM  AVERAGE  MAXIMUM
 CP2K                                 1  1.0     0.05     0.07 23010.93 23010.95
 cp_geo_opt                           1  2.0     0.01     0.02 23009.76 23009.81
 geoopt_bfgs                          1  3.0     0.07     0.12 23009.75 23009.81
 cp_eval_at                          83  4.0     0.02     0.04 22971.61 22971.64
 qs_forces                           82  5.0     0.03     0.05 22874.77 22874.78
 qs_energies                         83  6.0     0.03     0.07 21285.71 21285.87
 scf_env_do_scf                      83  7.0     0.03     0.12 20201.13 20201.17
 scf_env_do_scf_inner_loop         1479  8.0     0.09     0.16 18394.64 18394.73
 rebuild_ks_matrix                 1561  9.8     0.01     0.01 10069.32 10071.17
 qs_ks_build_kohn_sham_matrix      1561 10.8     0.52     1.14 10069.31 10071.16
 qs_ks_update_qs_env               1563  9.0     0.01     0.03  8574.76  8576.59
 qs_rho_update_rho                 1562  9.0     0.02     0.03  8191.14  8195.88
 calculate_rho_elec                3124 10.0  4046.55  4116.93  8191.13  8195.86
 sum_up_and_integrate               863 11.7    12.96    14.43  5426.44  5428.20
 integrate_v_rspace                1726 12.7  2996.00  3113.49  5413.48  5416.62
 pw_transfer                      49273 13.3     5.30     6.15  5185.40  5206.95
 fft_wrap_pw1pw2                  46151 14.4     0.54     0.62  5160.71  5182.51
 fft_wrap_pw1pw2_600              26751 15.7   297.94   336.87  4785.48  4807.72
 fft3d_ps                         46151 16.4  1383.04  1529.65  4463.67  4522.52
 rs_pw_transfer                   24664 13.0     0.33     0.39  3998.83  4061.41
 density_rs2pw                     3124 11.0     0.22     0.26  3710.84  3799.62
 qs_vxc_create                     1561 11.8     0.05     0.06  3621.78  3622.54
 dbcsr_multiply_generic           45383 13.8     3.04     4.25  3173.74  3181.81
 mp_alltoall_z22v                 46151 18.4  2691.20  2988.17  2691.20  2988.17
 mp_waitall_1                   9187428 16.7  2793.73  2895.77  2793.73  2895.77
 qs_scf_new_mos                    1479  9.0     0.01     0.02  2836.97  2839.18
 qs_scf_loop_do_ot                 1479 10.0     0.06     0.20  2836.96  2839.17
 xc_vxc_pw_create                   863 12.7   179.84   202.44  2686.60  2687.05
 ot_scf_mini                       1479 11.0     0.24     0.49  2612.91  2614.33
 multiply_cannon                  45383 14.8    14.47    15.29  2434.72  2485.35
 xc_rho_set_and_dset_create        1561 13.8    27.37    29.24  1959.95  1989.67
 potential_pw2rs                   1726 13.7     1.36     1.48  1896.18  1899.72
 mp_waitany                      890032 14.9  1776.86  1888.42  1776.86  1888.42
 x_to_yz                          20092 18.0   217.88   250.41  1743.90  1854.06
 init_scf_loop                       84  8.0     0.01     0.02  1803.53  1803.56
 rs_pw_transfer_RS2PW_600          3290 13.0   647.15   695.07  1664.96  1727.76
 multiply_cannon_metrocomm3      907660 15.8     2.42     2.56  1399.45  1585.45
 qs_ks_update_qs_env_forces          82  6.0     0.00     0.00  1510.52  1510.68
 yz_to_x                          16359 16.8   135.17   141.61  1298.09  1442.50
 ot_mini                           1479 12.0     0.01     0.02  1351.89  1353.56
 rs_pw_transfer_PW2RS_600          1974 15.2   441.45   487.99  1114.17  1147.86
 prepare_preconditioner              84  9.0     0.00     0.00   981.88   982.22
 xc_exc_calc                        698 13.0     3.40     3.88   935.13   935.51
 make_preconditioner                168 10.0     0.01     0.03   906.22   906.32
 qs_ot_get_derivative              1562 13.0     0.02     0.04   866.63   867.91
 make_full_all                      168 11.0     0.07     0.10   828.75   829.02
 multiply_cannon_metrocomm1      907660 15.8     2.80     3.02   606.67   805.23
 mp_alltoall_d11v                 50502 15.2   670.15   761.92   670.15   761.92
 rs_distribute_matrix              5014 12.0     6.15    12.43   627.54   714.77
 init_scf_run                        83  7.0     0.00     0.01   673.00   673.01
 scf_env_initial_rho_setup           83  8.0     0.00     0.01   672.99   673.01
 cp_fm_syevd                       2035 13.9     0.02     0.03   671.04   672.79
 wfi_extrapolate                     83  9.0     0.05     0.15   665.34   665.37
 cp_fm_redistribute_end            2035 14.9   222.19   646.86   226.21   650.17
 cp_fm_syevd_base                  2035 14.6   421.04   623.23   421.04   623.23
 qs_ot_get_p                       3126 11.9     0.04     0.08   546.97   553.07
 apply_preconditioner_dbcsr        1730 14.0     0.00     0.02   517.26   518.40
 apply_all                         1730 15.0     0.20     0.31   517.26   518.39
 mp_sum_d                         62430 14.8   388.34   489.81   388.34   489.81
 ot_new_cg_direction                781 13.0     0.02     0.05   474.05   474.15
 -------------------------------------------------------------------------------

 The number of warnings for this run is : 1
 
 -------------------------------------------------------------------------------
  **** **** ******  **  PROGRAM ENDED AT                 2019-06-30 11:56:54.116
 ***** ** ***  *** **   PROGRAM RAN ON            blg4310.int.ets1.calculquebec.
 **    ****   ******    PROGRAM RAN BY                                       rzk
 ***** **    ** ** **   PROGRAM PROCESS ID                                424691
  **** **  *******  **  PROGRAM STOPPED IN /scratch/rzk/rzk/GaN-carbene/443-adat
                                           oms-both-2x2/08-CH3O-H2O-H2C-H/02-Use
                                           -0701-H2CGa
