     212
 i =        1, E =     -8504.6787174217
  N        -0.0045048555        2.0242866874        2.4933438264
 Ga        -0.0244250784        0.0545517737        2.8563216922
  N        -0.0038760941        0.0554985457        5.0229468971
 Ga        -0.0023745849        1.8808006354        5.8093458885
  N        -0.0095158102        1.8940625996        7.8068756313
 Ga        -0.0085307889        0.0489669467        8.4492493330
  N        -0.0057752748        0.0477880776       10.4239225735
 Ga        -0.0064623802        1.8865578090       11.0743321086
  N        -0.0061768448        1.8648157659       13.0711997055
 Ga        -0.0051028974        0.0387089189       13.8673758700
  N        -0.0057872666        0.0459503989       16.0720624987
 Ga        -0.0078709095        2.0581803841       16.4500166015
 Ga         0.0508250946        3.7799510730        1.3960489669
  N        -1.4962998290        4.6220500222        2.4882266714
 Ga        -1.6217698597        2.8180689317        3.2990192127
  N        -1.6309978128        2.8236209345        5.2565698572
 Ga        -1.6265703557        4.7023847590        5.8069136502
  N        -1.6256606129        4.6920092243        7.8035345722
 Ga        -1.6023352172        2.8397249375        8.4486558800
  N        -1.6028958758        2.8395429908       10.4396844623
 Ga        -1.6287609163        4.6981136241       11.0743322494
  N        -1.6478584737        4.7082969461       13.0709144058
 Ga        -1.6046069075        2.8377132261       13.6147172615
  N        -1.6288565702        2.8259097821       15.5835616758
 Ga        -1.4777984057        4.6110869758       16.4510071693
  N        -0.0021552695        3.7589794866       17.5916925590
  N        -3.2205758641        7.6135848933        2.5435022310
 Ga        -3.1875079438        5.6204239784        2.8601639543
  N        -3.2168618318        5.6110818566        5.0140349249
 Ga        -3.2146884941        7.4412584828        5.8039107314
  N        -3.2192816206        7.4611596988        7.7972887217
 Ga        -3.2189438025        5.6158620361        8.4506820523
  N        -3.2215873118        5.6172380994       10.4234971103
 Ga        -3.2194175243        7.4582073576       11.0731886036
  N        -3.2215089438        7.4394148897       13.0661015996
 Ga        -3.2284580326        5.6220356314       13.8681114704
  N        -3.2204227083        5.6172328740       16.0734421452
 Ga        -3.2219946663        7.6713161602       16.5000093022
 Ga        -3.2020497886        9.3432851627        1.5377028959
  N        -4.7119726963       10.1935981149        2.5389208631
 Ga        -4.9248333795        8.3562941554        3.3173442356
  N        -4.8321181719        8.4016259821        5.2549925754
 Ga        -4.8593774840       10.2839399218        5.8086912264
  N        -4.8382164128       10.2674734750        7.8019587515
 Ga        -4.8195729553        8.4080531435        8.4400322242
  N        -4.8165805177        8.4099247715       10.4329692969
 Ga        -4.8433897018       10.2693913426       11.0732838280
  N        -4.8601238625       10.2772194739       13.0660171205
 Ga        -4.8170964455        8.4103330354       13.6309286556
  N        -4.8447053065        8.3948392793       15.5908049170
 Ga        -4.6576851830       10.1609615222       16.5002572727
  N        -3.2129385760        9.3338837773       17.6349932923
  N         3.1910116439        1.9200377929        2.6129546014
 Ga         3.2089062984        0.1839959699        3.3002943509
  N         3.2111680876        0.0520368555        5.2569367655
 Ga         3.2085641563        1.9158437135        5.8841684163
  N         3.2148365751        1.9054417051        7.8592135974
 Ga         3.2145014330        0.0377376678        8.4440172895
  N         3.2125401709        0.0345740790       10.4369965375
 Ga         3.2110254381        1.9026248043       11.0369919172
  N         3.2106615437        1.9033415633       13.0085062814
 Ga         3.2106254996        0.0330262256       13.6305450396
  N         3.2066509857        0.0663883270       15.5902254799
 Ga         3.2138353933        1.9023201975       15.8662241561
  N         1.4915525509        4.6231766339        2.5467282762
 Ga         1.6747408045        2.8093500395        3.3023590580
  N         1.6019946102        2.8317600475        5.2707796881
 Ga         1.6443288078        4.7141804125        5.8208337328
  N         1.6012326786        4.6884855234        7.8339684133
 Ga         1.5913914694        2.8376877879        8.4509457119
  N         1.5917770271        2.8349000829       10.4464439886
 Ga         1.6177714721        4.6990099837       11.0698498701
  N         1.6362853391        4.7086871765       13.0701634757
 Ga         1.5916809777        2.8390054808       13.6159319860
  N         1.6154481829        2.8248668819       15.5874097585
 Ga         1.4682430369        4.6146813501       16.4500145829
  N         0.0129427101        7.4578352039        2.6160709021
 Ga         0.0238817831        5.7029050865        3.2986361512
  N        -0.0061701389        5.6180335490        5.2677680946
 Ga         0.0139664798        7.4721993944        5.8719033463
  N        -0.0024092242        7.4770518333        7.8520651460
 Ga        -0.0068218521        5.6083766025        8.4464514056
  N        -0.0093818024        5.6069488527       10.4433711407
 Ga        -0.0060999660        7.4758112231       11.0332951179
  N        -0.0065880781        7.4746195977       13.0056568459
 Ga        -0.0052864952        5.6055933821       13.6143251033
  N        -0.0076196909        5.6336039627       15.5835578282
 Ga        -0.0055144012        7.4777978517       15.8664139859
  N        -1.7183452208       10.2005561182        2.5388423908
 Ga        -1.4818415697        8.3346058227        3.2980320879
  N        -1.6082929676        8.4006184268        5.2546484776
 Ga        -1.5878750843       10.2736225102        5.8028784927
  N        -1.6014827312       10.2668987945        7.7983600415
 Ga        -1.6175324055        8.4090509573        8.4387322555
  N        -1.6240124802        8.4106773552       10.4336781500
 Ga        -1.5962306717       10.2689910571       11.0766311088
  N        -1.5809872303       10.2783430231       13.0713104922
 Ga        -1.6250780698        8.4097589961       13.6310016180
  N        -1.5988237140        8.3903296341       15.5915769805
 Ga        -1.7748317142       10.1675024706       16.4995408218
  N         6.4314744065        2.0189043551        2.5230747852
 Ga         6.4424280964        0.0247173038        2.8833557089
  N         6.4288982593        0.0531422388        5.0253332000
 Ga         6.4215956179        1.8799279385        5.8032590207
  N         6.4302049988        1.8941308461        7.7967491864
 Ga         6.4320174047        0.0471753450        8.4465206770
  N         6.4282944807        0.0485299205       10.4217586255
 Ga         6.4300323783        1.8852994257       11.0807864606
  N         6.4287108103        1.8673555147       13.0737213271
 Ga         6.4277943127        0.0474804872       13.8858348237
  N         6.4287051452        0.0454114322       16.0784656794
 Ga         6.4254566912        2.0898971631       16.5003737027
 Ga         6.4286862519        3.7333540060        1.5017588410
  N         4.9127862401        4.6303776798        2.4340593542
 Ga         4.6911974760        2.8035276328        3.2864054029
  N         4.8228087166        2.8439664112        5.2449070575
 Ga         4.7675944243        4.7155497272        5.8394534533
  N         4.8241723307        4.6859949674        7.8372315034
 Ga         4.8331892820        2.8336482725        8.4577122895
  N         4.8320204882        2.8338861185       10.4477711778
 Ga         4.8036861522        4.6979136185       11.0739241687
  N         4.7891663117        4.7071353773       13.0679970413
 Ga         4.8311091750        2.8397362473       13.6302824212
  N         4.8001752877        2.8259805453       15.5903826930
 Ga         4.9898707270        4.5897851826       16.5005086297
  N         6.4281423564        3.7521834350       17.6361101074
  N         3.2098096129        7.5987946797        2.4345871465
  N         3.2153273556        5.6161289155        5.1742226018
 Ga         3.2076641184        7.4260777777        5.8162124296
  N         3.2109985009        7.4789683698        7.8260088199
 Ga         3.2090995747        5.6201423335        8.4437272180
  N         3.2114658327        5.6180566170       10.4275878135
 Ga         3.2096632958        7.4581574042       11.0722192749
  N         3.2113854412        7.4397104307       13.0671639631
 Ga         3.2184269669        5.6220313350       13.8656007982
  N         3.2112536947        5.6185827011       16.0726891350
 Ga         3.2075878043        7.6742932675       16.4990579632
 Ga         3.1801426700        9.3822178168        1.3586227432
  N         1.7031439617       10.2123066421        2.5381555114
 Ga         1.5481110068        8.3339075819        3.2518667908
  N         1.6121190363        8.3985609271        5.2321593216
 Ga         1.5884742376       10.2613189234        5.7843854969
  N         1.5943823500       10.2686425254        7.7877894556
 Ga         1.6119856972        8.4147704933        8.4473409003
  N         1.6103083097        8.4138759049       10.4424741333
 Ga         1.5883624780       10.2712363232       11.0785067606
  N         1.5714819030       10.2797686389       13.0722092855
 Ga         1.6142509957        8.4097935198       13.6276109034
  N         1.5847683046        8.3915256224       15.5861550838
 Ga         1.7683892162       10.1633423308       16.5002236004
  N         3.2068204520        9.3326133463       17.6406708338
  N         9.6638073971        1.9103521852        2.6594772445
 Ga         9.6526778674        0.0876980590        3.2919463629
  N         9.6458720157        0.0754238897        5.2478443297
 Ga         9.6526964158        1.9017965833        5.9156445613
  N         9.6433874306        1.9059010966        7.8722283771
 Ga         9.6420949419        0.0330479609        8.4380561699
  N         9.6423644808        0.0362904813       10.4321160415
 Ga         9.6432927568        1.9039373421       11.0284902533
  N         9.6428061575        1.9046714236       13.0004781738
 Ga         9.6433912798        0.0359745532       13.6292098135
  N         9.6438345239        0.0687799043       15.5872127161
 Ga         9.6398669368        1.9024147523       15.8701053982
  N         7.9261272922        4.6214299713        2.5210417578
 Ga         8.1054457737        2.7924242330        3.3191562612
  N         8.0551688592        2.8250273673        5.2561916289
 Ga         8.0608463721        4.7099648522        5.8021269087
  N         8.0474213215        4.6943242062        7.7945433437
 Ga         8.0246700838        2.8383306952        8.4438543347
  N         8.0246605718        2.8386764160       10.4345428895
 Ga         8.0521128937        4.6956240549       11.0778907264
  N         8.0665530664        4.7061330980       13.0689511693
 Ga         8.0252730449        2.8386193959       13.6323959316
  N         8.0534565914        2.8253861828       15.5927956603
 Ga         7.8635430209        4.5909220937       16.5009187045
  N         6.4136995964        7.4785243407        2.6071303596
 Ga         6.3836730058        5.7116177012        3.2931627685
  N         6.4207836302        5.6089871400        5.2354429614
 Ga         6.4072322087        7.4745098212        5.8656644032
  N         6.4252379162        7.4732620995        7.8400759630
 Ga         6.4316584497        5.6060980360        8.4546842431
  N         6.4322837076        5.6060786083       10.4443572988
 Ga         6.4292920734        7.4763004999       11.0377143031
  N         6.4283327281        7.4749440261       13.0078738151
 Ga         6.4272475846        5.6036120952       13.6306730234
  N         6.4263697071        5.6347879756       15.5911645244
 Ga         6.4270514131        7.4742154070       15.8648300139
  N         4.7090710192       10.2063536322        2.5108481936
 Ga         4.8443838714        8.3599724159        3.2622751269
  N         4.8107074350        8.4015314877        5.2235527365
 Ga         4.8439196016       10.2699462873        5.7872496558
  N         4.8287696442       10.2679248518        7.7895101832
 Ga         4.8074150224        8.4139099079        8.4497138012
  N         4.8114571819        8.4129062965       10.4427047204
 Ga         4.8318331946       10.2717045960       11.0757812448
  N         4.8494419988       10.2787567165       13.0677228664
 Ga         4.8069702387        8.4104841340       13.6296063495
  N         4.8345628327        8.3939448481       15.5906081149
 Ga         4.6433911534       10.1617598289       16.4998108973
  O         0.6405489214        3.9840163713       -0.3654000971
  H         2.5197696395        6.4587208580       -0.1020799371
  C         0.9803037595        2.7792580482       -1.0841352313
  H         1.7116883478        2.1627605728       -0.5357120200
  H         0.0818095968        2.1749840098       -1.2791758402
  H         1.4148631898        3.0761943394       -2.0493344212
 Ga         3.1534560879        5.6237584671        2.2492066220
  O         2.8093922391        5.5509582339        0.1088683058
  H         2.0084516328        4.9506729890       -0.0859462327
  C         3.0927753522        9.3728656125       -0.4924402763
  H         9.6807547875        1.9406229064        1.6350915755
  H         3.9394021334        9.8203196761       -1.0429104158
  H         2.2688385442        8.8946862647       -1.0408197277
     212
 i =        2, E =     -8504.6865731439
  N        -0.0072542918        2.0363150188        2.4939356417
 Ga        -0.0324968713        0.0508152802        2.8530602132
  N        -0.0023704467        0.0511422987        5.0218020769
 Ga         0.0005424588        1.8724755890        5.8108347956
  N        -0.0093468484        1.8935072065        7.8062684959
 Ga        -0.0084673998        0.0468471918        8.4476602560
  N        -0.0059785830        0.0469753512       10.4221870896
 Ga        -0.0043613510        1.8849547627       11.0751650826
  N        -0.0062628681        1.8661700567       13.0687234818
 Ga        -0.0052582503        0.0434028065       13.8711697686
  N        -0.0050574173        0.0514301531       16.0727141815
 Ga        -0.0076567977        2.0753939921       16.4669423098
 Ga         0.0563404264        3.7856971739        1.3827848028
  N        -1.4887379884        4.6150800514        2.4885098018
 Ga        -1.5985955728        2.8333395007        3.3186767333
  N        -1.6295261948        2.8236479445        5.2568779200
 Ga        -1.6316899698        4.7080035474        5.8077795937
  N        -1.6255060465        4.6917787386        7.8028013096
 Ga        -1.5998297050        2.8406461625        8.4533916090
  N        -1.6021210713        2.8396092770       10.4426172341
 Ga        -1.6288012494        4.7001517198       11.0749658198
  N        -1.6468292153        4.7078532824       13.0677132034
 Ga        -1.6050394918        2.8380197558       13.6174006467
  N        -1.6315137372        2.8253456697       15.5791394424
 Ga        -1.4615514019        4.6020329905       16.4679928107
  N        -0.0002008401        3.7575348200       17.6052017313
  N        -3.2169713359        7.6026867113        2.5480848877
 Ga        -3.1862167693        5.6191806384        2.8595594394
  N        -3.2192375222        5.6150193668        5.0125522789
 Ga        -3.2178008961        7.4485099048        5.8016732855
  N        -3.2188350506        7.4617440641        7.7971156484
 Ga        -3.2200738042        5.6172441522        8.4495936500
  N        -3.2223446367        5.6177722471       10.4228012794
 Ga        -3.2206020537        7.4594874121       11.0730131861
  N        -3.2215448827        7.4381723070       13.0676115315
 Ga        -3.2234554329        5.6197190194       13.8717643315
  N        -3.2164988254        5.6149372355       16.0742027588
 Ga        -3.2202807843        7.6643544055       16.4941519525
 Ga        -3.2160575198        9.3332595200        1.5553080659
  N        -4.7183583515       10.2000454714        2.5432239435
 Ga        -4.9512133244        8.3400300633        3.3007422045
  N        -4.8289747220        8.4037562562        5.2531987202
 Ga        -4.8556257777       10.2781656306        5.8063956698
  N        -4.8380691250       10.2681760370        7.8014525328
 Ga        -4.8226038650        8.4068769439        8.4337213540
  N        -4.8176882020        8.4092787155       10.4291609072
 Ga        -4.8433984929       10.2680528517       11.0724370007
  N        -4.8610900364       10.2777859910       13.0670307705
 Ga        -4.8166023829        8.4106985074       13.6306069733
  N        -4.8451960281        8.3952833344       15.5926555663
 Ga        -4.6618482669       10.1656550856       16.4944829888
  N        -3.2145582647        9.3313338048       17.6267558389
  N         3.1949125863        1.9154425959        2.6071602205
 Ga         3.2045693125        0.1814748774        3.3033482794
  N         3.2130041095        0.0545133165        5.2605763946
 Ga         3.2080843447        1.9161199533        5.8837828555
  N         3.2149662463        1.9054556370        7.8583851263
 Ga         3.2132422580        0.0376546936        8.4427324133
  N         3.2126906396        0.0338656164       10.4358923366
 Ga         3.2121771998        1.9015892885       11.0366109133
  N         3.2121427006        1.9025819077       13.0074118778
 Ga         3.2105783955        0.0331093505       13.6300326795
  N         3.2093927939        0.0664559444       15.5907093782
 Ga         3.2106900638        1.9040290632       15.8656292219
  N         1.4834594318        4.6185542322        2.5469696145
 Ga         1.6855001018        2.8053619468        3.3048074359
  N         1.5982962715        2.8321647224        5.2719586470
 Ga         1.6453536315        4.7147746653        5.8219211655
  N         1.6018091473        4.6885778650        7.8337594066
 Ga         1.5924853191        2.8383929342        8.4500289923
  N         1.5927683031        2.8345293803       10.4448312356
 Ga         1.6187792702        4.6991968671       11.0691259770
  N         1.6348527566        4.7081032297       13.0665586573
 Ga         1.5922010533        2.8390127233       13.6182045039
  N         1.6177210208        2.8237767678       15.5827665220
 Ga         1.4530944546        4.6060565153       16.4669065710
  N         0.0086504195        7.4611962156        2.6107489196
 Ga         0.0252515301        5.7116866602        3.3004569806
  N        -0.0075554225        5.6143730809        5.2679623393
 Ga         0.0123834255        7.4704246571        5.8746802258
  N        -0.0024473093        7.4771418403        7.8537762535
 Ga        -0.0052497601        5.6089600397        8.4460390917
  N        -0.0088764333        5.6077374722       10.4422810372
 Ga        -0.0058322364        7.4774502274       11.0322064687
  N        -0.0063914599        7.4765191469       13.0040132110
 Ga        -0.0054954033        5.6065124653       13.6164229310
  N        -0.0082937921        5.6365327795       15.5786547785
 Ga        -0.0051207963        7.4757647910       15.8638077049
  N        -1.7175703662       10.2024579626        2.5382801664
 Ga        -1.4870942955        8.3339620029        3.2996392584
  N        -1.6050632353        8.4014440461        5.2571274273
 Ga        -1.5899048790       10.2727919123        5.8053856946
  N        -1.6016728006       10.2670474145        7.8000255575
 Ga        -1.6179397360        8.4083894716        8.4380220319
  N        -1.6245031303        8.4110632698       10.4330881184
 Ga        -1.5963176109       10.2689218999       11.0765960974
  N        -1.5806327401       10.2785842482       13.0717714666
 Ga        -1.6251700390        8.4098178729       13.6304268598
  N        -1.5975374510        8.3936228032       15.5925298363
 Ga        -1.7735140727       10.1686300640       16.4949349648
  N         6.4360681709        2.0270678498        2.5193733835
 Ga         6.4488869242        0.0202480266        2.8819611825
  N         6.4253990000        0.0525580143        5.0231331996
 Ga         6.4195566579        1.8756019175        5.8060460751
  N         6.4305781824        1.8942836474        7.7971165034
 Ga         6.4321439917        0.0463016948        8.4449497023
  N         6.4283121973        0.0485202153       10.4202320194
 Ga         6.4283293554        1.8842091405       11.0825784870
  N         6.4286424425        1.8668736028       13.0755330164
 Ga         6.4283785523        0.0465643550       13.8841623863
  N         6.4274005992        0.0464128255       16.0807525954
 Ga         6.4250576555        2.0877112823       16.4953873247
 Ga         6.4183749376        3.7554881329        1.5013542314
  N         4.9096988459        4.6296844634        2.4375178511
 Ga         4.6853666954        2.8074350328        3.2899284538
  N         4.8247047880        2.8408067323        5.2475021749
 Ga         4.7734053538        4.7158381550        5.8366040644
  N         4.8233436922        4.6861024649        7.8361839334
 Ga         4.8320939757        2.8355838974        8.4563088238
  N         4.8325551614        2.8342228478       10.4465275869
 Ga         4.8042905589        4.6988608157       11.0733265351
  N         4.7884184083        4.7076679864       13.0691570460
 Ga         4.8307828579        2.8399480973       13.6298683354
  N         4.8014439862        2.8236504174       15.5909968434
 Ga         4.9835890931        4.5911759098       16.4942436804
  N         6.4298974270        3.7547053818       17.6267437191
  N         3.2025478166        7.6121734044        2.4547263338
  N         3.2163967399        5.6155320411        5.1807867849
 Ga         3.2110964841        7.4285479907        5.8154436672
  N         3.2109925567        7.4786725284        7.8268444794
 Ga         3.2098027689        5.6213522150        8.4423420798
  N         3.2120496938        5.6186573462       10.4263381359
 Ga         3.2111420021        7.4588436000       11.0709767278
  N         3.2112192512        7.4392471218       13.0675005284
 Ga         3.2139453544        5.6201918770       13.8683269733
  N         3.2069396980        5.6152290621       16.0731812862
 Ga         3.2058336174        7.6663481009       16.4946565556
 Ga         3.1917031839        9.3571347042        1.3520663330
  N         1.7219451977       10.2042336531        2.5541889929
 Ga         1.5407922540        8.3253072353        3.2711514439
  N         1.6092610581        8.4012563688        5.2478126991
 Ga         1.5826418141       10.2637620028        5.7880087479
  N         1.5952833858       10.2688040309        7.7890675686
 Ga         1.6135694877        8.4131131973        8.4452098629
  N         1.6112450974        8.4139479805       10.4404476890
 Ga         1.5870318629       10.2699543667       11.0787928581
  N         1.5713677313       10.2797822012       13.0718740200
 Ga         1.6142111946        8.4100549334       13.6278697548
  N         1.5843090919        8.3962290069       15.5875547509
 Ga         1.7669873818       10.1641037290       16.4973306405
  N         3.2118846219        9.3300607765       17.6317125961
  N         9.6620161497        1.9122960386        2.6785695117
 Ga         9.6563792792        0.0625255351        3.3220211860
  N         9.6448921096        0.0797967111        5.2598166225
 Ga         9.6535679044        1.9032305558        5.9237006109
  N         9.6429686547        1.9056233967        7.8744705708
 Ga         9.6431727253        0.0293193577        8.4420551833
  N         9.6425525779        0.0339603118       10.4345998013
 Ga         9.6422592651        1.9027764084       11.0294160962
  N         9.6412260957        1.9036872825       13.0005912260
 Ga         9.6429794736        0.0353722617       13.6300460619
  N         9.6396662185        0.0670153512       15.5890821801
 Ga         9.6422854878        1.9032280012       15.8682132905
  N         7.9287839020        4.6148691599        2.5215093636
 Ga         8.0796997658        2.8122126335        3.3358883872
  N         8.0574088467        2.8210596757        5.2577360084
 Ga         8.0584849436        4.7133081892        5.8011200152
  N         8.0474335071        4.6930216285        7.7935689197
 Ga         8.0223433491        2.8405913757        8.4492303642
  N         8.0227977399        2.8396158185       10.4383108970
 Ga         8.0506820916        4.6981169970       11.0793578125
  N         8.0676619932        4.7070211905       13.0716276371
 Ga         8.0248623107        2.8390172632       13.6324897521
  N         8.0515418042        2.8226402915       15.5942978238
 Ga         7.8709145720        4.5934233174       16.4946421034
  N         6.4178324405        7.4794870310        2.6059826969
 Ga         6.3829548951        5.7495002176        3.2800080627
  N         6.4228661878        5.6014586940        5.2359235491
 Ga         6.4085054978        7.4735604448        5.8540012896
  N         6.4251116503        7.4730993953        7.8358409031
 Ga         6.4304153213        5.6093251444        8.4488969044
  N         6.4320908344        5.6074969727       10.4407417834
 Ga         6.4292823695        7.4767751116       11.0371769009
  N         6.4281873559        7.4750358399       13.0094224099
 Ga         6.4269742452        5.6032761035       13.6305061810
  N         6.4257746571        5.6351449336       15.5931168710
 Ga         6.4258044214        7.4751508419       15.8663470773
  N         4.6894307149       10.2033077538        2.5207393605
 Ga         4.8817976534        8.3375779099        3.2550538487
  N         4.8066772016        8.4059357676        5.2324108401
 Ga         4.8474950646       10.2667418668        5.7892400331
  N         4.8279028618       10.2686379479        7.7905649987
 Ga         4.8094574991        8.4116899508        8.4428829808
  N         4.8126260848        8.4120085016       10.4379178407
 Ga         4.8334335954       10.2688576312       11.0760617420
  N         4.8501083200       10.2792453502       13.0691503506
 Ga         4.8060497496        8.4107784612       13.6300691693
  N         4.8331162606        8.3948348805       15.5932495934
 Ga         4.6498954931       10.1673290201       16.4955052826
  O         0.6448902473        3.9887215199       -0.3744837494
  H         2.5301423952        6.4590612803       -0.1102588718
  C         0.9765054515        2.7776213095       -1.0848933939
  H         1.7100827177        2.1642195644       -0.5356779815
  H         0.0826804531        2.1681420544       -1.2829730728
  H         1.4154735092        3.0753383855       -2.0477691986
 Ga         3.1521951539        5.6335579921        2.2495218779
  O         2.8128040412        5.5516321226        0.1121754788
  H         2.0068182490        4.9603522685       -0.0851095795
  C         3.1036366907        9.3745987771       -0.5258029349
  H         9.6707846692        1.9270056352        1.6460335599
  H         3.9211989711        9.8036038235       -1.1093485487
  H         2.2876343613        8.9187896389       -1.0836958740
     212
 i =        3, E =     -8504.6880890345
  N        -0.0071849308        2.0416109778        2.4946962901
 Ga        -0.0355065639        0.0567965797        2.8533400725
  N        -0.0030770064        0.0498252243        5.0215699438
 Ga         0.0029094621        1.8713641640        5.8116402463
  N        -0.0086011604        1.8921557434        7.8066349706
 Ga        -0.0072545162        0.0456898657        8.4484636217
  N        -0.0057702122        0.0463314113       10.4227904767
 Ga        -0.0037618832        1.8844695151       11.0754911563
  N        -0.0059673067        1.8663143941       13.0680712012
 Ga        -0.0049623097        0.0454034932       13.8717453129
  N        -0.0051393861        0.0507411102       16.0737388233
 Ga        -0.0068815633        2.0814780644       16.4744153124
 Ga         0.0563587845        3.7867612124        1.3836008477
  N        -1.4848656834        4.6145353952        2.4897521794
 Ga        -1.5946101372        2.8369835256        3.3223473685
  N        -1.6264936032        2.8253738825        5.2570189798
 Ga        -1.6316852615        4.7102207482        5.8093918532
  N        -1.6263578505        4.6931459208        7.8036789391
 Ga        -1.5985130516        2.8414603748        8.4540887294
  N        -1.6018764010        2.8396450844       10.4428876519
 Ga        -1.6289348353        4.7008338747       11.0751140904
  N        -1.6466783129        4.7081322059       13.0669155298
 Ga        -1.6041838145        2.8386097042       13.6192024291
  N        -1.6314599488        2.8252699180       15.5798588734
 Ga        -1.4561589147        4.5988342643       16.4752975235
  N        -0.0000402937        3.7575816917       17.6085876009
  N        -3.2168286554        7.5961710251        2.5429881302
 Ga        -3.1825788777        5.6135485219        2.8604625610
  N        -3.2195918412        5.6156055151        5.0122427592
 Ga        -3.2191358854        7.4492718189        5.8003881456
  N        -3.2197957425        7.4627020644        7.7960197910
 Ga        -3.2210043717        5.6186546552        8.4497185134
  N        -3.2227786317        5.6182057355       10.4228377686
 Ga        -3.2215555815        7.4597479290       11.0723068316
  N        -3.2218222155        7.4386041382       13.0679607319