 DBCSR| Multiplication driver                                               BLAS
 DBCSR| Multrec recursion limit                                              512
 DBCSR| Multiplication stack size                                           1000
 DBCSR| Maximum elements for images                                    UNLIMITED
 DBCSR| Multiplicative factor virtual images                                   1
 DBCSR| Multiplication size stacks                                             3
 DBCSR| Number of 3D layers                                               SINGLE
 DBCSR| Use MPI memory allocation                                              T
 DBCSR| Use RMA algorithm                                                      F
 DBCSR| Use Communication thread                                               T
 DBCSR| Communication thread load                                             87


  **** **** ******  **  PROGRAM STARTED AT               2019-07-21 22:01:40.045
 ***** ** ***  *** **   PROGRAM STARTED ON        blg4110.int.ets1.calculquebec.
 **    ****   ******    PROGRAM STARTED BY                                   rzk
 ***** **    ** ** **   PROGRAM PROCESS ID                                304263
  **** **  *******  **  PROGRAM STARTED IN /lustre04/scratch/rzk/rzk/GaN-carbene
                                           /443-adatoms-both-2x2/12-CH3O-H2C-H/0
                                           2-Start-Intermediate-0904

 CP2K| version string:                    CP2K version 7.0 (Development Version)
 CP2K| source code revision number:                                    svn:18619
 CP2K| cp2kflags: libint fftw3 libxc parallel mpi3 scalapack mkl                
 CP2K| is freely available from                            https://www.cp2k.org/
 CP2K| Program compiled at                          Sun Apr  7 00:48:11 EDT 2019
 CP2K| Program compiled on                      beluga2.int.ets1.calculquebec.ca
 CP2K| Program compiled for                    Beluga-Linux-x86-64-intel-openmpi
 CP2K| Data directory path    /home/rzk/projects/def-rzk/group/cp2k/cp2k-mcgill/
 CP2K| Input file name                                                 start.inp
 
 GLOBAL| Force Environment number                                              1
 GLOBAL| Basis set file name                                        BASIS_MOLOPT
 GLOBAL| Potential file name                                      GTH_POTENTIALS
 GLOBAL| MM Potential file name                                     MM_POTENTIAL
 GLOBAL| Coordinate file name                                      __STD_INPUT__
 GLOBAL| Method name                                                        CP2K
 GLOBAL| Project name                                                       TEST
 GLOBAL| Preferred FFT library                                             FFTW3
 GLOBAL| Preferred diagonalization lib.                                       SL
 GLOBAL| Run type                                                        GEO_OPT
 GLOBAL| All-to-all communication in single precision                          F
 GLOBAL| FFTs using library dependent lengths                                  F
 GLOBAL| Global print level                                               MEDIUM
 GLOBAL| MPI I/O enabled                                                       T
 GLOBAL| Total number of message passing processes                            80
 GLOBAL| Number of threads for this process                                    1
 GLOBAL| This output is from process                                           0
 GLOBAL| CPU model name :  Intel(R) Xeon(R) Gold 6148 CPU @ 2.40GHz

 MEMORY| system memory details [Kb]
 MEMORY|                        rank 0           min           max       average
 MEMORY| MemTotal            196614300     196614300     196614300     196614300
 MEMORY| MemFree             173227864     173214924     177785480     175486039
 MEMORY| Buffers                     0             0             0             0
 MEMORY| Cached                2039340       1468184       2043096       1753902
 MEMORY| Slab                  2211388       1531352       2211580       1871377
 MEMORY| SReclaimable           476496        177352        476688        326931
 MEMORY| MemLikelyFree       175743700     175734708     179431016     177566873


 *** Fundamental physical constants (SI units) ***

 *** Literature: B. J. Mohr and B. N. Taylor,
 ***             CODATA recommended values of the fundamental physical
 ***             constants: 2006, Web Version 5.1
 ***             http://physics.nist.gov/constants

 Speed of light in vacuum [m/s]                             2.99792458000000E+08
 Magnetic constant or permeability of vacuum [N/A**2]       1.25663706143592E-06
 Electric constant or permittivity of vacuum [F/m]          8.85418781762039E-12
 Planck constant (h) [J*s]                                  6.62606896000000E-34
 Planck constant (h-bar) [J*s]                              1.05457162825177E-34
 Elementary charge [C]                                      1.60217648700000E-19
 Electron mass [kg]                                         9.10938215000000E-31
 Electron g factor [ ]                                     -2.00231930436220E+00
 Proton mass [kg]                                           1.67262163700000E-27
 Fine-structure constant                                    7.29735253760000E-03
 Rydberg constant [1/m]                                     1.09737315685270E+07
 Avogadro constant [1/mol]                                  6.02214179000000E+23
 Boltzmann constant [J/K]                                   1.38065040000000E-23
 Atomic mass unit [kg]                                      1.66053878200000E-27
 Bohr radius [m]                                            5.29177208590000E-11

 *** Conversion factors ***

 [u] -> [a.u.]                                              1.82288848426455E+03
 [Angstrom] -> [Bohr] = [a.u.]                              1.88972613288564E+00
 [a.u.] = [Bohr] -> [Angstrom]                              5.29177208590000E-01
 [a.u.] -> [s]                                              2.41888432650478E-17
 [a.u.] -> [fs]                                             2.41888432650478E-02
 [a.u.] -> [J]                                              4.35974393937059E-18
 [a.u.] -> [N]                                              8.23872205491840E-08
 [a.u.] -> [K]                                              3.15774647902944E+05
 [a.u.] -> [kJ/mol]                                         2.62549961709828E+03
 [a.u.] -> [kcal/mol]                                       6.27509468713739E+02
 [a.u.] -> [Pa]                                             2.94210107994716E+13
 [a.u.] -> [bar]                                            2.94210107994716E+08
 [a.u.] -> [atm]                                            2.90362800883016E+08
 [a.u.] -> [eV]                                             2.72113838565563E+01
 [a.u.] -> [Hz]                                             6.57968392072181E+15
 [a.u.] -> [1/cm] (wave numbers)                            2.19474631370540E+05
 [a.u./Bohr**2] -> [1/cm]                                   5.14048714338585E+03
 

 CELL_TOP| Volume [angstrom^3]:                                         4586.323
 CELL_TOP| Vector a [angstrom    12.864     0.000     0.000    |a| =      12.864
 CELL_TOP| Vector b [angstrom    -6.432    11.141     0.000    |b| =      12.864
 CELL_TOP| Vector c [angstrom     0.000     0.000    32.000    |c| =      32.000
 CELL_TOP| Angle (b,c), alpha [degree]:                                   90.000
 CELL_TOP| Angle (a,c), beta  [degree]:                                   90.000
 CELL_TOP| Angle (a,b), gamma [degree]:                                  120.000
 CELL_TOP| Numerically orthorhombic:                                          NO
 
 GENERATE|  Preliminary Number of Bonds generated:                             0
 GENERATE|  Achieved consistency in connectivity generation.

 CELL| Volume [angstrom^3]:                                             4586.323
 CELL| Vector a [angstrom]:      12.864     0.000     0.000    |a| =      12.864
 CELL| Vector b [angstrom]:      -6.432    11.141     0.000    |b| =      12.864
 CELL| Vector c [angstrom]:       0.000     0.000    32.000    |c| =      32.000
 CELL| Angle (b,c), alpha [degree]:                                       90.000
 CELL| Angle (a,c), beta  [degree]:                                       90.000
 CELL| Angle (a,b), gamma [degree]:                                      120.000
 CELL| Numerically orthorhombic:                                              NO

 CELL_REF| Volume [angstrom^3]:                                         4670.759
 CELL_REF| Vector a [angstrom    12.982     0.000     0.000    |a| =      12.982
 CELL_REF| Vector b [angstrom    -6.491    11.243     0.000    |b| =      12.982
 CELL_REF| Vector c [angstrom     0.000     0.000    32.000    |c| =      32.000
 CELL_REF| Angle (b,c), alpha [degree]:                                   90.000
 CELL_REF| Angle (a,c), beta  [degree]:                                   90.000
 CELL_REF| Angle (a,b), gamma [degree]:                                  120.000
 CELL_REF| Numerically orthorhombic:                                          NO

 *******************************************************************************
 *******************************************************************************
 **                                                                           **
 **     #####                         ##              ##                      **
 **    ##   ##            ##          ##              ##                      **
 **   ##     ##                       ##            ######                    **
 **   ##     ##  ##   ##  ##   #####  ##  ##   ####   ##    #####    #####    **
 **   ##     ##  ##   ##  ##  ##      ## ##   ##      ##   ##   ##  ##   ##   **
 **   ##  ## ##  ##   ##  ##  ##      ####     ###    ##   ######   ######    **
 **    ##  ###   ##   ##  ##  ##      ## ##      ##   ##   ##       ##        **
 **     #######   #####   ##   #####  ##  ##  ####    ##    #####   ##        **
 **           ##                                                    ##        **
 **                                                                           **
 **                                                ... make the atoms dance   **
 **                                                                           **
 **            Copyright (C) by CP2K developers group (2000 - 2018)           **
 **                                                                           **
 *******************************************************************************

 DFT| Spin unrestricted (spin-polarized) Kohn-Sham calculation               UKS
 DFT| Multiplicity                                                             1
 DFT| Number of spin states                                                    2
 DFT| Charge                                                                   0
 DFT| Self-interaction correction (SIC)                                       NO
 DFT| Cutoffs: density                                              1.000000E-10
 DFT|          gradient                                             1.000000E-10
 DFT|          tau                                                  1.000000E-10
 DFT|          cutoff_smoothing_range                               0.000000E+00
 DFT| XC density smoothing                                                  NONE
 DFT| XC derivatives                                                          PW
 FUNCTIONAL| ROUTINE=NEW
 FUNCTIONAL| PBE:
 FUNCTIONAL| J.P.Perdew, K.Burke, M.Ernzerhof, Phys. Rev. Letter, vol. 77, n 18,
 FUNCTIONAL|  pp. 3865-3868, (1996){spin polarized}                             
 vdW POTENTIAL|                                                   Pair Potential
 vdW POTENTIAL|          DFT-D3 (Version 3.1)
 vdW POTENTIAL|          Potential Form: S. Grimme et al, JCP 132: 154104 (2010)
 vdW POTENTIAL|          Zero Damping
 vdW POTENTIAL|          Cutoff Radius [Bohr]:                             18.90
 vdW POTENTIAL|          s6 Scaling Factor:                               1.0000
 vdW POTENTIAL|          sr6 Scaling Factor:                              1.2170
 vdW POTENTIAL|          s8 Scaling Factor:                               0.7220
 vdW POTENTIAL|          Cutoff for CN calculation:                   0.1000E-05

 QS| Method:                                                                 GPW
 QS| Density plane wave grid type                        NON-SPHERICAL FULLSPACE
 QS| Number of grid levels:                                                    5
 QS| Density cutoff [a.u.]:                                                600.0
 QS| Multi grid cutoff [a.u.]: 1) grid level                               600.0
 QS|                           2) grid level                               200.0
 QS|                           3) grid level                                66.7
 QS|                           4) grid level                                22.2
 QS|                           5) grid level                                 7.4
 QS| Grid level progression factor:                                          3.0
 QS| Relative density cutoff [a.u.]:                                        20.0
 QS| Consistent realspace mapping and integration 
 QS| Interaction thresholds: eps_pgf_orb:                                1.0E-07
 QS|                         eps_filter_matrix:                          0.0E+00
 QS|                         eps_core_charge:                            1.0E-16
 QS|                         eps_rho_gspace:                             1.0E-14
 QS|                         eps_rho_rspace:                             1.0E-14
 QS|                         eps_gvg_rspace:                             1.0E-07
 QS|                         eps_ppl:                                    1.0E-02
 QS|                         eps_ppnl:                                   1.0E-09


 ATOMIC KIND INFORMATION

  1. Atomic kind: N                                     Number of atoms:     100

     Orbital Basis Set                                        DZVP-MOLOPT-SR-GTH

       Number of orbital shell sets:                                           1
       Number of orbital shells:                                               5
       Number of primitive Cartesian functions:                                5
       Number of Cartesian basis functions:                                   14
       Number of spherical basis functions:                                   13
       Norm type:                                                              2

       Normalised Cartesian orbitals:

                        Set   Shell   Orbital            Exponent    Coefficient

                          1       1    2s                7.341988       0.360561
                                                         2.542637       0.139177
                                                         0.888575      -0.289383
                                                         0.333802      -0.182244
                                                         0.112012      -0.019197

                          1       2    3s                7.341988       0.282000
                                                         2.542637       0.177875
                                                         0.888575      -0.278381
                                                         0.333802       0.008577
                                                         0.112012       0.154176

                          1       3    3px               7.341988      -1.188719
                                                         2.542637      -0.973969
                                                         0.888575      -0.501079
                                                         0.333802      -0.144894
                                                         0.112012      -0.013986
                          1       3    3py               7.341988      -1.188719
                                                         2.542637      -0.973969
                                                         0.888575      -0.501079
                                                         0.333802      -0.144894
                                                         0.112012      -0.013986
                          1       3    3pz               7.341988      -1.188719
                                                         2.542637      -0.973969
                                                         0.888575      -0.501079
                                                         0.333802      -0.144894
                                                         0.112012      -0.013986

                          1       4    4px               7.341988      -0.094798
                                                         2.542637       0.050069
                                                         0.888575      -0.114797
                                                         0.333802       0.144793
                                                         0.112012       0.066710
                          1       4    4py               7.341988      -0.094798
                                                         2.542637       0.050069
                                                         0.888575      -0.114797
                                                         0.333802       0.144793
                                                         0.112012       0.066710
                          1       4    4pz               7.341988      -0.094798
                                                         2.542637       0.050069
                                                         0.888575      -0.114797
                                                         0.333802       0.144793
                                                         0.112012       0.066710

                          1       5    4dx2              7.341988       1.354688
                                                         2.542637       0.690378
                                                         0.888575       0.855359
                                                         0.333802       0.091746
                                                         0.112012       0.001253
                          1       5    4dxy              7.341988       2.346389
                                                         2.542637       1.195770
                                                         0.888575       1.481524
                                                         0.333802       0.158910
                                                         0.112012       0.002169
                          1       5    4dxz              7.341988       2.346389
                                                         2.542637       1.195770
                                                         0.888575       1.481524
                                                         0.333802       0.158910
                                                         0.112012       0.002169
                          1       5    4dy2              7.341988       1.354688
                                                         2.542637       0.690378
                                                         0.888575       0.855359
                                                         0.333802       0.091746
                                                         0.112012       0.001253
                          1       5    4dyz              7.341988       2.346389
                                                         2.542637       1.195770
                                                         0.888575       1.481524
                                                         0.333802       0.158910
                                                         0.112012       0.002169
                          1       5    4dz2              7.341988       1.354688
                                                         2.542637       0.690378
                                                         0.888575       0.855359
                                                         0.333802       0.091746
                                                         0.112012       0.001253

     GTH Potential information for                                    GTH-PBE-q5

       Description:                       Goedecker-Teter-Hutter pseudopotential
                                           Goedecker et al., PRB 54, 1703 (1996)
                                          Hartwigsen et al., PRB 58, 3641 (1998)
                                                      Krack, TCA 114, 145 (2005)

       Gaussian exponent of the core charge distribution:               6.208322
       Electronic configuration (s p d ...):                               2   3

       Parameters of the local part of the GTH pseudopotential:

                          rloc        C1          C2          C3          C4
                        0.283791  -12.415226    1.868096

       Parameters of the non-local part of the GTH pseudopotential:

                   l      r(l)      h(i,j,l)

                   0    0.255405   13.630263
                   1    0.245495

  2. Atomic kind: Ga                                    Number of atoms:     100

     Orbital Basis Set                                        DZVP-MOLOPT-SR-GTH

       Number of orbital shell sets:                                           1
       Number of orbital shells:                                               7
       Number of primitive Cartesian functions:                                6
       Number of Cartesian basis functions:                                   30
       Number of spherical basis functions:                                   25
       Norm type:                                                              2

       Normalised Cartesian orbitals:

                        Set   Shell   Orbital            Exponent    Coefficient

                          1       1    2s                7.066654       0.013136
                                                         3.428369      -0.094392
                                                         1.430064       0.265435
                                                         0.571611       0.056465
                                                         0.232197      -0.192187
                                                         0.076562      -0.044987

                          1       2    3s                7.066654      -0.098564
                                                         3.428369       0.010390
                                                         1.430064       0.351249
                                                         0.571611       0.182615
                                                         0.232197      -0.425358
                                                         0.076562       0.190349

                          1       3    3px               7.066654       0.002364
                                                         3.428369       0.019222
                                                         1.430064       0.250132
                                                         0.571611      -0.058486
                                                         0.232197      -0.159451
                                                         0.076562      -0.020696
                          1       3    3py               7.066654       0.002364
                                                         3.428369       0.019222
                                                         1.430064       0.250132
                                                         0.571611      -0.058486
                                                         0.232197      -0.159451
                                                         0.076562      -0.020696
                          1       3    3pz               7.066654       0.002364
                                                         3.428369       0.019222
                                                         1.430064       0.250132
                                                         0.571611      -0.058486
                                                         0.232197      -0.159451
                                                         0.076562      -0.020696

                          1       4    4px               7.066654       0.492448
                                                         3.428369      -0.614736
                                                         1.430064      -0.191654
                                                         0.571611       0.037801
                                                         0.232197       0.302315
                                                         0.076562      -0.071336
                          1       4    4py               7.066654       0.492448
                                                         3.428369      -0.614736
                                                         1.430064      -0.191654
                                                         0.571611       0.037801
                                                         0.232197       0.302315
                                                         0.076562      -0.071336
                          1       4    4pz               7.066654       0.492448
                                                         3.428369      -0.614736
                                                         1.430064      -0.191654
                                                         0.571611       0.037801
                                                         0.232197       0.302315
                                                         0.076562      -0.071336

                          1       5    4dx2              7.066654     -15.264855
                                                         3.428369      -5.345726
                                                         1.430064      -1.022732
                                                         0.571611      -0.123148
                                                         0.232197      -0.006983
                                                         0.076562      -0.000022
                          1       5    4dxy              7.066654     -26.439504
                                                         3.428369      -9.259069
                                                         1.430064      -1.771423
                                                         0.571611      -0.213299
                                                         0.232197      -0.012094
                                                         0.076562      -0.000037
                          1       5    4dxz              7.066654     -26.439504
                                                         3.428369      -9.259069
                                                         1.430064      -1.771423
                                                         0.571611      -0.213299
                                                         0.232197      -0.012094
                                                         0.076562      -0.000037
                          1       5    4dy2              7.066654     -15.264855
                                                         3.428369      -5.345726
                                                         1.430064      -1.022732
                                                         0.571611      -0.123148
                                                         0.232197      -0.006983
                                                         0.076562      -0.000022
                          1       5    4dyz              7.066654     -26.439504
                                                         3.428369      -9.259069
                                                         1.430064      -1.771423
                                                         0.571611      -0.213299
                                                         0.232197      -0.012094
                                                         0.076562      -0.000037
                          1       5    4dz2              7.066654     -15.264855
                                                         3.428369      -5.345726
                                                         1.430064      -1.022732
                                                         0.571611      -0.123148
                                                         0.232197      -0.006983
                                                         0.076562      -0.000022

                          1       6    5dx2              7.066654      -5.739265
                                                         3.428369      -2.129289
                                                         1.430064      -0.700423
                                                         0.571611       0.161606
                                                         0.232197       0.043513
                                                         0.076562       0.011205
                          1       6    5dxy              7.066654      -9.940698
                                                         3.428369      -3.688037
                                                         1.430064      -1.213168
                                                         0.571611       0.279909
                                                         0.232197       0.075368
                                                         0.076562       0.019407
                          1       6    5dxz              7.066654      -9.940698
                                                         3.428369      -3.688037
                                                         1.430064      -1.213168
                                                         0.571611       0.279909
                                                         0.232197       0.075368
                                                         0.076562       0.019407
                          1       6    5dy2              7.066654      -5.739265
                                                         3.428369      -2.129289
                                                         1.430064      -0.700423
                                                         0.571611       0.161606
                                                         0.232197       0.043513
                                                         0.076562       0.011205
                          1       6    5dyz              7.066654      -9.940698
                                                         3.428369      -3.688037
                                                         1.430064      -1.213168
                                                         0.571611       0.279909
                                                         0.232197       0.075368
                                                         0.076562       0.019407
                          1       6    5dz2              7.066654      -5.739265
                                                         3.428369      -2.129289
                                                         1.430064      -0.700423
                                                         0.571611       0.161606
                                                         0.232197       0.043513
                                                         0.076562       0.011205

                          1       7    5fx3              7.066654       0.705879
                                                         3.428369      -0.273976
                                                         1.430064       0.113667
                                                         0.571611       0.132480
                                                         0.232197       0.012437
                                                         0.076562       0.003241
                          1       7    5fx2y             7.066654       1.578393
                                                         3.428369      -0.612629
                                                         1.430064       0.254167
                                                         0.571611       0.296234
                                                         0.232197       0.027811
                                                         0.076562       0.007246
                          1       7    5fx2z             7.066654       1.578393
                                                         3.428369      -0.612629
                                                         1.430064       0.254167
                                                         0.571611       0.296234
                                                         0.232197       0.027811
                                                         0.076562       0.007246
                          1       7    5fxy2             7.066654       1.578393
                                                         3.428369      -0.612629
                                                         1.430064       0.254167
                                                         0.571611       0.296234
                                                         0.232197       0.027811
                                                         0.076562       0.007246
                          1       7    5fxyz             7.066654       2.733856
                                                         3.428369      -1.061105
                                                         1.430064       0.440230
                                                         0.571611       0.513092
                                                         0.232197       0.048170
                                                         0.076562       0.012551
                          1       7    5fxz2             7.066654       1.578393
                                                         3.428369      -0.612629
                                                         1.430064       0.254167
                                                         0.571611       0.296234
                                                         0.232197       0.027811
                                                         0.076562       0.007246
                          1       7    5fy3              7.066654       0.705879
                                                         3.428369      -0.273976
                                                         1.430064       0.113667
                                                         0.571611       0.132480
                                                         0.232197       0.012437
                                                         0.076562       0.003241
                          1       7    5fy2z             7.066654       1.578393
                                                         3.428369      -0.612629
                                                         1.430064       0.254167
                                                         0.571611       0.296234
                                                         0.232197       0.027811
                                                         0.076562       0.007246
                          1       7    5fyz2             7.066654       1.578393
                                                         3.428369      -0.612629
                                                         1.430064       0.254167
                                                         0.571611       0.296234
                                                         0.232197       0.027811
                                                         0.076562       0.007246
                          1       7    5fz3              7.066654       0.705879
                                                         3.428369      -0.273976
                                                         1.430064       0.113667
                                                         0.571611       0.132480
                                                         0.232197       0.012437
                                                         0.076562       0.003241

     GTH Potential information for                                   GTH-PBE-q13

       Description:                       Goedecker-Teter-Hutter pseudopotential
                                           Goedecker et al., PRB 54, 1703 (1996)
                                          Hartwigsen et al., PRB 58, 3641 (1998)
                                                      Krack, TCA 114, 145 (2005)

       Gaussian exponent of the core charge distribution:               2.082466
       Electronic configuration (s p d ...):                           2   1  10

       Parameters of the local part of the GTH pseudopotential:

                          rloc        C1          C2          C3          C4
                        0.490000

       Parameters of the non-local part of the GTH pseudopotential:

                   l      r(l)      h(i,j,l)

                   0    0.416777   10.475690   -4.921768    0.870706
                                   -4.921768    7.770178   -2.248152
                                    0.870706   -2.248152    1.784415
                   1    0.569627    1.777985    0.195860
                                    0.195860   -0.231744
                   2    0.238126  -16.248680

  3. Atomic kind: O                                     Number of atoms:       1

     Orbital Basis Set                                     DZVP-MOLOPT-SR-GTH-q6

       Number of orbital shell sets:                                           1
       Number of orbital shells:                                               5
       Number of primitive Cartesian functions:                                5
       Number of Cartesian basis functions:                                   14
       Number of spherical basis functions:                                   13
       Norm type:                                                              2

       Normalised Cartesian orbitals:

                        Set   Shell   Orbital            Exponent    Coefficient

                          1       1    2s               10.389228       0.396646
                                                         3.849621       0.208811
                                                         1.388401      -0.301641
                                                         0.496955      -0.274061
                                                         0.162492      -0.033677

                          1       2    3s               10.389228       0.303673
                                                         3.849621       0.240943
                                                         1.388401      -0.313066
                                                         0.496955      -0.043055
                                                         0.162492       0.213991

                          1       3    3px              10.389228      -1.530415
                                                         3.849621      -1.371928
                                                         1.388401      -0.761951
                                                         0.496955      -0.253695
                                                         0.162492      -0.035541
                          1       3    3py              10.389228      -1.530415
                                                         3.849621      -1.371928
                                                         1.388401      -0.761951
                                                         0.496955      -0.253695
                                                         0.162492      -0.035541
                          1       3    3pz              10.389228      -1.530415
                                                         3.849621      -1.371928
                                                         1.388401      -0.761951
                                                         0.496955      -0.253695
                                                         0.162492      -0.035541

                          1       4    4px              10.389228      -0.565392
                                                         3.849621      -0.038231
                                                         1.388401      -0.382373
                                                         0.496955       0.179070
                                                         0.162492       0.122714
                          1       4    4py              10.389228      -0.565392
                                                         3.849621      -0.038231
                                                         1.388401      -0.382373
                                                         0.496955       0.179070
                                                         0.162492       0.122714
                          1       4    4pz              10.389228      -0.565392
                                                         3.849621      -0.038231
                                                         1.388401      -0.382373
                                                         0.496955       0.179070
                                                         0.162492       0.122714

                          1       5    4dx2             10.389228       1.867377
                                                         3.849621       0.670994
                                                         1.388401       1.353441
                                                         0.496955       0.273538
                                                         0.162492       0.006620
                          1       5    4dxy             10.389228       3.234392
                                                         3.849621       1.162195
                                                         1.388401       2.344229
                                                         0.496955       0.473781
                                                         0.162492       0.011466
                          1       5    4dxz             10.389228       3.234392
                                                         3.849621       1.162195
                                                         1.388401       2.344229
                                                         0.496955       0.473781
                                                         0.162492       0.011466
                          1       5    4dy2             10.389228       1.867377
                                                         3.849621       0.670994
                                                         1.388401       1.353441
                                                         0.496955       0.273538
                                                         0.162492       0.006620
                          1       5    4dyz             10.389228       3.234392
                                                         3.849621       1.162195
                                                         1.388401       2.344229
                                                         0.496955       0.473781
                                                         0.162492       0.011466
                          1       5    4dz2             10.389228       1.867377
                                                         3.849621       0.670994
                                                         1.388401       1.353441
                                                         0.496955       0.273538
                                                         0.162492       0.006620

     GTH Potential information for                                    GTH-PBE-q6

       Description:                       Goedecker-Teter-Hutter pseudopotential
                                           Goedecker et al., PRB 54, 1703 (1996)
                                          Hartwigsen et al., PRB 58, 3641 (1998)
                                                      Krack, TCA 114, 145 (2005)

       Gaussian exponent of the core charge distribution:               8.360253
       Electronic configuration (s p d ...):                               2   4

       Parameters of the local part of the GTH pseudopotential:

                          rloc        C1          C2          C3          C4
                        0.244554  -16.667215    2.487311

       Parameters of the non-local part of the GTH pseudopotential:

                   l      r(l)      h(i,j,l)

                   0    0.220956   18.337458
                   1    0.211332

  4. Atomic kind: C                                     Number of atoms:       2

     Orbital Basis Set                                     DZVP-MOLOPT-SR-GTH-q4

       Number of orbital shell sets:                                           1
       Number of orbital shells:                                               5
       Number of primitive Cartesian functions:                                5
       Number of Cartesian basis functions:                                   14
       Number of spherical basis functions:                                   13
       Norm type:                                                              2

       Normalised Cartesian orbitals:

                        Set   Shell   Orbital            Exponent    Coefficient

                          1       1    2s                5.605331       0.322515
                                                         2.113016       0.213043
                                                         0.769911      -0.209686
                                                         0.348157      -0.219794
                                                         0.128212      -0.022789

                          1       2    3s                5.605331       0.552234
                                                         2.113016       0.082072
                                                         0.769911       0.007843
                                                         0.348157       0.136893
                                                         0.128212       0.074283

                          1       3    3px               5.605331      -0.703879
                                                         2.113016      -0.642521
                                                         0.769911      -0.374851
                                                         0.348157      -0.139743
                                                         0.128212      -0.027849
                          1       3    3py               5.605331      -0.703879
                                                         2.113016      -0.642521
                                                         0.769911      -0.374851
                                                         0.348157      -0.139743
                                                         0.128212      -0.027849
                          1       3    3pz               5.605331      -0.703879
                                                         2.113016      -0.642521
                                                         0.769911      -0.374851
                                                         0.348157      -0.139743
                                                         0.128212      -0.027849

                          1       4    4px               5.605331      -0.480376
                                                         2.113016      -0.552894
                                                         0.769911      -0.316145
                                                         0.348157       0.210505
                                                         0.128212       0.076095
                          1       4    4py               5.605331      -0.480376
                                                         2.113016      -0.552894
                                                         0.769911      -0.316145
                                                         0.348157       0.210505
                                                         0.128212       0.076095
                          1       4    4pz               5.605331      -0.480376
                                                         2.113016      -0.552894
                                                         0.769911      -0.316145
                                                         0.348157       0.210505
                                                         0.128212       0.076095

                          1       5    4dx2              5.605331       0.640026
                                                         2.113016       0.274300
                                                         0.769911       0.446711
                                                         0.348157       0.028674
                                                         0.128212       0.029790
                          1       5    4dxy              5.605331       1.108557
                                                         2.113016       0.475102
                                                         0.769911       0.773726
                                                         0.348157       0.049666
                                                         0.128212       0.051599
                          1       5    4dxz              5.605331       1.108557
                                                         2.113016       0.475102
                                                         0.769911       0.773726
                                                         0.348157       0.049666
                                                         0.128212       0.051599
                          1       5    4dy2              5.605331       0.640026
                                                         2.113016       0.274300
                                                         0.769911       0.446711
                                                         0.348157       0.028674
                                                         0.128212       0.029790
                          1       5    4dyz              5.605331       1.108557
                                                         2.113016       0.475102
                                                         0.769911       0.773726
                                                         0.348157       0.049666
                                                         0.128212       0.051599
                          1       5    4dz2              5.605331       0.640026
                                                         2.113016       0.274300
                                                         0.769911       0.446711
                                                         0.348157       0.028674
                                                         0.128212       0.029790

     GTH Potential information for                                    GTH-PBE-q4

       Description:                       Goedecker-Teter-Hutter pseudopotential
                                           Goedecker et al., PRB 54, 1703 (1996)
                                          Hartwigsen et al., PRB 58, 3641 (1998)
                                                      Krack, TCA 114, 145 (2005)

       Gaussian exponent of the core charge distribution:               4.364419
       Electronic configuration (s p d ...):                               2   2

       Parameters of the local part of the GTH pseudopotential:

                          rloc        C1          C2          C3          C4
                        0.338471   -8.803674    1.339211

       Parameters of the non-local part of the GTH pseudopotential:

                   l      r(l)      h(i,j,l)

                   0    0.302576    9.622487
                   1    0.291507

  5. Atomic kind: H                                     Number of atoms:       6

     Orbital Basis Set                                     DZVP-MOLOPT-SR-GTH-q1

       Number of orbital shell sets:                                           1
       Number of orbital shells:                                               3
       Number of primitive Cartesian functions:                                5
       Number of Cartesian basis functions:                                    5
       Number of spherical basis functions:                                    5
       Norm type:                                                              2

       Normalised Cartesian orbitals:

                        Set   Shell   Orbital            Exponent    Coefficient

                          1       1    2s               10.068468      -0.133023
                                                         2.680223      -0.177618
                                                         0.791502      -0.258419
                                                         0.239116      -0.107525
                                                         0.082193      -0.014019

                          1       2    3s               10.068468       0.344673
                                                         2.680223       1.819821
                                                         0.791502      -0.999069
                                                         0.239116       0.017430
                                                         0.082193       0.082660

                          1       3    3px              10.068468       0.155326
                                                         2.680223       0.367157
                                                         0.791502       0.311480
                                                         0.239116       0.080105
                                                         0.082193       0.033440
                          1       3    3py              10.068468       0.155326
                                                         2.680223       0.367157
                                                         0.791502       0.311480
                                                         0.239116       0.080105
                                                         0.082193       0.033440
                          1       3    3pz              10.068468       0.155326
                                                         2.680223       0.367157
                                                         0.791502       0.311480
                                                         0.239116       0.080105
                                                         0.082193       0.033440

     GTH Potential information for                                    GTH-PBE-q1

       Description:                       Goedecker-Teter-Hutter pseudopotential
                                           Goedecker et al., PRB 54, 1703 (1996)
                                          Hartwigsen et al., PRB 58, 3641 (1998)
                                                      Krack, TCA 114, 145 (2005)

       Gaussian exponent of the core charge distribution:              12.500000
       Electronic configuration (s p d ...):                                   1

       Parameters of the local part of the GTH pseudopotential:

                          rloc        C1          C2          C3          C4
                        0.200000   -4.178900    0.724463


 MOLECULE KIND INFORMATION


 All atoms are their own molecule, skipping detailed information


 TOTAL NUMBERS AND MAXIMUM NUMBERS

  Total number of            - Atomic kinds:                                   5
                             - Atoms:                                        209
                             - Shell sets:                                   209
                             - Shells:                                      1233
                             - Primitive Cartesian functions:               1145
                             - Cartesian basis functions:                   4472
                             - Spherical basis functions:                   3869

  Maximum angular momentum of- Orbital basis functions:                        3
                             - Local part of the GTH pseudopotential:          2
                             - Non-local part of the GTH pseudopotential:      4


 MODULE QUICKSTEP:  ATOMIC COORDINATES IN angstrom

  Atom  Kind  Element       X           Y           Z          Z(eff)       Mass

       1     1 N    7    0.068586    2.139172    2.550385      5.00      14.0067
       2     2 Ga  31    0.108407    0.196630    2.984020     13.00      69.7230
       3     1 N    7    0.098640    0.142509    5.079129      5.00      14.0067
       4     2 Ga  31    0.077106    1.967172    5.843110     13.00      69.7230
       5     1 N    7    0.070847    1.976634    7.839352      5.00      14.0067
       6     2 Ga  31    0.067108    0.123106    8.471602     13.00      69.7230
       7     1 N    7    0.069983    0.122502   10.450002      5.00      14.0067
       8     2 Ga  31    0.076402    1.957745   11.119835     13.00      69.7230
       9     1 N    7    0.073826    1.940176   13.109371      5.00      14.0067
      10     2 Ga  31    0.075968    0.122162   13.921519     13.00      69.7230
      11     1 N    7    0.074559    0.122433   16.114030      5.00      14.0067
      12     2 Ga  31    0.073637    2.172931   16.534214     13.00      69.7230
      13     2 Ga  31    0.150056    3.852039    1.419092     13.00      69.7230
      14     1 N    7   -1.389226    4.717251    2.535606      5.00      14.0067
      15     2 Ga  31   -1.618306    2.895100    3.281196     13.00      69.7230
      16     1 N    7   -1.553222    2.908819    5.262194      5.00      14.0067
      17     2 Ga  31   -1.564482    4.776173    5.867994     13.00      69.7230
      18     1 N    7   -1.543945    4.768584    7.855415      5.00      14.0067
      19     2 Ga  31   -1.514735    2.915568    8.511137     13.00      69.7230
      20     1 N    7   -1.519837    2.917202   10.492903      5.00      14.0067
      21     2 Ga  31   -1.548873    4.777056   11.129078     13.00      69.7230
      22     1 N    7   -1.567077    4.783683   13.116580      5.00      14.0067
      23     2 Ga  31   -1.523653    2.912226   13.668257     13.00      69.7230
      24     1 N    7   -1.549298    2.895314   15.626879      5.00      14.0067
      25     2 Ga  31   -1.371185    4.668606   16.533742     13.00      69.7230
      26     1 N    7    0.067163    3.837749   17.678491      5.00      14.0067
      27     1 N    7   -3.117770    7.680696    2.579364      5.00      14.0067
      28     2 Ga  31   -3.096964    5.670925    2.947150     13.00      69.7230
      29     1 N    7   -3.128858    5.707051    5.097221      5.00      14.0067
      30     2 Ga  31   -3.141900    7.531586    5.858346     13.00      69.7230
      31     1 N    7   -3.139843    7.547621    7.845206      5.00      14.0067
      32     2 Ga  31   -3.137984    5.704267    8.506092     13.00      69.7230
      33     1 N    7   -3.140507    5.695617   10.473342      5.00      14.0067
      34     2 Ga  31   -3.147560    7.535706   11.120047     13.00      69.7230
      35     1 N    7   -3.145047    7.513834   13.110230      5.00      14.0067
      36     2 Ga  31   -3.144567    5.693716   13.926194     13.00      69.7230
      37     1 N    7   -3.144034    5.692476   16.113085      5.00      14.0067
      38     2 Ga  31   -3.144058    7.738683   16.533877     13.00      69.7230
      39     2 Ga  31   -3.144107    9.443045    1.600882     13.00      69.7230
      40     1 N    7   -4.628126   10.291089    2.595562      5.00      14.0067
      41     2 Ga  31   -4.872785    8.405567    3.311698     13.00      69.7230
      42     1 N    7   -4.747779    8.480027    5.272153      5.00      14.0067
      43     2 Ga  31   -4.765128   10.353794    5.845122     13.00      69.7230
      44     1 N    7   -4.757538   10.344180    7.837196      5.00      14.0067
      45     2 Ga  31   -4.754593    8.483804    8.465831     13.00      69.7230
      46     1 N    7   -4.744792    8.483376   10.462079      5.00      14.0067
      47     2 Ga  31   -4.769967   10.343183   11.109444     13.00      69.7230
      48     1 N    7   -4.784491   10.352595   13.102268      5.00      14.0067
      49     2 Ga  31   -4.741481    8.486034   13.668370     13.00      69.7230
      50     1 N    7   -4.768604    8.471656   15.626537      5.00      14.0067
      51     2 Ga  31   -4.583237   10.238184   16.534456     13.00      69.7230
      52     1 N    7   -3.144360    9.399878   17.677440      5.00      14.0067
      53     1 N    7    3.319490    2.014083    2.656755      5.00      14.0067
      54     2 Ga  31    3.319852    0.277070    3.348758     13.00      69.7230
      55     1 N    7    3.301336    0.131723    5.307014      5.00      14.0067
      56     2 Ga  31    3.314724    2.004851    5.897010     13.00      69.7230
      57     1 N    7    3.299869    1.988037    7.881212      5.00      14.0067
      58     2 Ga  31    3.286466    0.121874    8.488126     13.00      69.7230
      59     1 N    7    3.287462    0.114151   10.478119      5.00      14.0067
      60     2 Ga  31    3.287016    1.980072   11.083467     13.00      69.7230
      61     1 N    7    3.288309    1.978842   13.049982      5.00      14.0067
      62     2 Ga  31    3.287254    0.106527   13.667872     13.00      69.7230
      63     1 N    7    3.287517    0.139250   15.624880      5.00      14.0067
      64     2 Ga  31    3.288528    1.978169   15.899498     13.00      69.7230
      65     1 N    7    1.562096    4.711048    2.645825      5.00      14.0067
      66     2 Ga  31    1.778582    2.874478    3.340323     13.00      69.7230
      67     1 N    7    1.689740    2.911890    5.311919      5.00      14.0067
      68     2 Ga  31    1.700501    4.770898    5.889007     13.00      69.7230
      69     1 N    7    1.687972    4.771942    7.867310      5.00      14.0067
      70     2 Ga  31    1.676962    2.909320    8.485003     13.00      69.7230
      71     1 N    7    1.671864    2.911548   10.476346      5.00      14.0067
      72     2 Ga  31    1.699133    4.774525   11.113584     13.00      69.7230
      73     1 N    7    1.713676    4.783139   13.105613      5.00      14.0067
      74     2 Ga  31    1.668045    2.915407   13.669483     13.00      69.7230
      75     1 N    7    1.696190    2.898352   15.626107      5.00      14.0067
      76     2 Ga  31    1.513099    4.665374   16.535916     13.00      69.7230
      77     1 N    7    0.092693    7.548826    2.728189      5.00      14.0067
      78     2 Ga  31    0.079292    5.705247    3.400729     13.00      69.7230
      79     1 N    7    0.069337    5.714365    5.333171      5.00      14.0067
      80     2 Ga  31    0.110131    7.568705    5.938780     13.00      69.7230
      81     1 N    7    0.082119    7.559789    7.902218      5.00      14.0067
      82     2 Ga  31    0.074236    5.687839    8.496344     13.00      69.7230
      83     1 N    7    0.072134    5.683500   10.483040      5.00      14.0067
      84     2 Ga  31    0.074775    7.551844   11.078091     13.00      69.7230
      85     1 N    7    0.073463    7.550025   13.045714      5.00      14.0067
      86     2 Ga  31    0.074902    5.679591   13.670261     13.00      69.7230
      87     1 N    7    0.076165    5.710342   15.628578      5.00      14.0067
      88     2 Ga  31    0.069367    7.547417   15.908673     13.00      69.7230
      89     1 N    7   -1.627132   10.281682    2.594727      5.00      14.0067
      90     2 Ga  31   -1.477033    8.471929    3.395609     13.00      69.7230
      91     1 N    7   -1.511964    8.479797    5.315701      5.00      14.0067
      92     2 Ga  31   -1.512246   10.358903    5.888891     13.00      69.7230
      93     1 N    7   -1.529122   10.339256    7.868447      5.00      14.0067
      94     2 Ga  31   -1.542961    8.485846    8.499510     13.00      69.7230
      95     1 N    7   -1.546470    8.483772   10.484629      5.00      14.0067
      96     2 Ga  31   -1.520746   10.345328   11.119481     13.00      69.7230
      97     1 N    7   -1.503815   10.353361   13.109410      5.00      14.0067
      98     2 Ga  31   -1.547162    8.485039   13.668856     13.00      69.7230
      99     1 N    7   -1.518869    8.470413   15.627451      5.00      14.0067
     100     2 Ga  31   -1.705212   10.237915   16.534069     13.00      69.7230
     101     1 N    7    6.638934    2.080350    2.626691      5.00      14.0067
     102     2 Ga  31    6.547830    0.143699    3.021334     13.00      69.7230
     103     1 N    7    6.489018    0.138288    5.154130      5.00      14.0067
     104     2 Ga  31    6.454631    1.949882    5.921320     13.00      69.7230
     105     1 N    7    6.490719    1.973111    7.893973      5.00      14.0067
     106     2 Ga  31    6.513704    0.115920    8.500393     13.00      69.7230
     107     1 N    7    6.509043    0.119509   10.470946      5.00      14.0067
     108     2 Ga  31    6.507058    1.962605   11.118263     13.00      69.7230
     109     1 N    7    6.505320    1.941942   13.108932      5.00      14.0067
     110     2 Ga  31    6.502246    0.123806   13.923953     13.00      69.7230
     111     1 N    7    6.502600    0.122923   16.114039      5.00      14.0067
     112     2 Ga  31    6.503615    2.174418   16.535494     13.00      69.7230
     113     2 Ga  31    8.119104    2.904700    1.294615     13.00      69.7230
     114     1 N    7    4.872331    4.761550    2.493116      5.00      14.0067
     115     2 Ga  31    4.920335    2.882689    3.180498     13.00      69.7230
     116     1 N    7    4.921247    2.923254    5.214742      5.00      14.0067
     117     2 Ga  31    4.906812    4.772488    5.836932     13.00      69.7230
     118     1 N    7    4.899774    4.770384    7.834749      5.00      14.0067
     119     2 Ga  31    4.897954    2.923971    8.510900     13.00      69.7230
     120     1 N    7    4.903915    2.919328   10.493356      5.00      14.0067
     121     2 Ga  31    4.879168    4.780231   11.123805     13.00      69.7230
     122     1 N    7    4.864367    4.784367   13.111850      5.00      14.0067
     123     2 Ga  31    4.909669    2.914661   13.669280     13.00      69.7230
     124     1 N    7    4.880704    2.897529   15.625871      5.00      14.0067
     125     2 Ga  31    5.065489    4.665060   16.535192     13.00      69.7230
     126     1 N    7    6.509551    3.838569   17.678947      5.00      14.0067
     127     1 N    7    3.276150    7.559970    2.625568      5.00      14.0067
     128     1 N    7    3.286911    5.688318    5.158536      5.00      14.0067
     129     2 Ga  31    3.296694    7.554093    5.824409     13.00      69.7230
     130     1 N    7    3.291854    7.551916    7.822415      5.00      14.0067
     131     2 Ga  31    3.297189    5.703012    8.477301     13.00      69.7230
     132     1 N    7    3.291287    5.697003   10.454659      5.00      14.0067
     133     2 Ga  31    3.293243    7.534216   11.113252     13.00      69.7230
     134     1 N    7    3.289723    7.512646   13.107414      5.00      14.0067
     135     2 Ga  31    3.288449    5.691013   13.923231     13.00      69.7230
     136     1 N    7    3.288827    5.690213   16.114050      5.00      14.0067
     137     2 Ga  31    3.289123    7.727958   16.520076     13.00      69.7230
     138     2 Ga  31    3.420098    9.517701    1.570204     13.00      69.7230
     139     1 N    7    1.702813   10.348145    2.553377      5.00      14.0067
     140     2 Ga  31    1.707890    8.580656    3.216250     13.00      69.7230
     141     1 N    7    1.682932    8.483592    5.216379      5.00      14.0067
     142     2 Ga  31    1.673825   10.356171    5.816901     13.00      69.7230
     143     1 N    7    1.682468   10.343380    7.826240      5.00      14.0067
     144     2 Ga  31    1.702127    8.493529    8.488284     13.00      69.7230
     145     1 N    7    1.694021    8.486355   10.478027      5.00      14.0067
     146     2 Ga  31    1.667501   10.342665   11.125732     13.00      69.7230
     147     1 N    7    1.648800   10.352566   13.115853      5.00      14.0067
     148     2 Ga  31    1.692613    8.483173   13.668622     13.00      69.7230
     149     1 N    7    1.662498    8.466098   15.630525      5.00      14.0067
     150     2 Ga  31    1.835895   10.244825   16.518853     13.00      69.7230
     151     1 N    7    3.289117    9.406167   17.637789      5.00      14.0067
     152     1 N    7    9.576291    2.077499    2.659812      5.00      14.0067
     153     2 Ga  31    9.644106    0.171049    3.204912     13.00      69.7230
     154     1 N    7    9.726556    0.158063    5.217541      5.00      14.0067
     155     2 Ga  31    9.766994    1.953447    5.975718     13.00      69.7230
     156     1 N    7    9.735158    1.974775    7.931031      5.00      14.0067
     157     2 Ga  31    9.729833    0.099690    8.492400     13.00      69.7230
     158     1 N    7    9.723246    0.105972   10.481204      5.00      14.0067
     159     2 Ga  31    9.720988    1.979707   11.074130     13.00      69.7230
     160     1 N    7    9.720469    1.977991   13.043349      5.00      14.0067
     161     2 Ga  31    9.722466    0.109424   13.667040     13.00      69.7230
     162     1 N    7    9.721789    0.142946   15.629358      5.00      14.0067
     163     2 Ga  31    9.721229    1.982245   15.907564     13.00      69.7230
     164     1 N    7    8.124392    4.631339    2.597038      5.00      14.0067
     165     2 Ga  31    8.114717    2.924623    3.671748     13.00      69.7230
     166     1 N    7    8.119452    2.920518    5.528204      5.00      14.0067
     167     2 Ga  31    8.124811    4.851193    5.891321     13.00      69.7230
     168     1 N    7    8.118803    4.798481    7.871544      5.00      14.0067
     169     2 Ga  31    8.104796    2.923733    8.486650     13.00      69.7230
     170     1 N    7    8.103400    2.918652   10.479064      5.00      14.0067
     171     2 Ga  31    8.126957    4.776687   11.119802     13.00      69.7230
     172     1 N    7    8.144309    4.783587   13.110509      5.00      14.0067
     173     2 Ga  31    8.101465    2.913865   13.669227     13.00      69.7230
     174     1 N    7    8.127716    2.895920   15.627413      5.00      14.0067
     175     2 Ga  31    7.947817    4.668660   16.535355     13.00      69.7230
     176     1 N    7    6.498819    7.538005    2.584344      5.00      14.0067
     177     2 Ga  31    6.527948    5.714949    3.125553     13.00      69.7230
     178     1 N    7    6.508729    5.683802    5.175378      5.00      14.0067
     179     2 Ga  31    6.476758    7.544493    5.828691     13.00      69.7230
     180     1 N    7    6.497646    7.550704    7.831036      5.00      14.0067
     181     2 Ga  31    6.496778    5.703030    8.492420     13.00      69.7230
     182     1 N    7    6.501663    5.687204   10.479192      5.00      14.0067
     183     2 Ga  31    6.503308    7.555119   11.074040     13.00      69.7230
     184     1 N    7    6.503840    7.550911   13.041719      5.00      14.0067
     185     2 Ga  31    6.504622    5.680825   13.669906     13.00      69.7230
     186     1 N    7    6.502628    5.711204   15.627724      5.00      14.0067
     187     2 Ga  31    6.508290    7.547853   15.908144     13.00      69.7230
     188     1 N    7    4.875734   10.391125    2.507407      5.00      14.0067
     189     2 Ga  31    4.957053    8.483048    3.157053     13.00      69.7230
     190     1 N    7    4.886684    8.497031    5.176109      5.00      14.0067
     191     2 Ga  31    4.918708   10.353528    5.782944     13.00      69.7230
     192     1 N    7    4.905163   10.343481    7.799621      5.00      14.0067
     193     2 Ga  31    4.894018    8.491285    8.459078     13.00      69.7230
     194     1 N    7    4.888919    8.487024   10.458198      5.00      14.0067
     195     2 Ga  31    4.915723   10.341830   11.116446     13.00      69.7230
     196     1 N    7    4.930696   10.352537   13.109309      5.00      14.0067
     197     2 Ga  31    4.885859    8.484210   13.667866     13.00      69.7230
     198     1 N    7    4.915317    8.466810   15.629429      5.00      14.0067
     199     2 Ga  31    4.742002   10.244735   16.519055     13.00      69.7230
     200     3 O    8    0.083881    3.863736   -0.404807      6.00      15.9994
     201     4 C    6    0.640738    2.779087   -1.160366      4.00      12.0107
     202     5 H    1    1.613285    2.440977   -0.765604      1.00       1.0079
     203     5 H    1   -0.041266    1.914448   -1.201759      1.00       1.0079
     204     5 H    1    0.795794    3.143821   -2.187341      1.00       1.0079
     205     2 Ga  31    3.216808    5.655047    3.139711     13.00      69.7230
     206     5 H    1    0.020208    7.505194    1.704700      1.00       1.0079
     207     4 C    6    4.818566    4.726422    0.994638      4.00      12.0107
     208     5 H    1    5.724641    5.189623    0.574632      1.00       1.0079
     209     5 H    1    3.886297    4.245972    0.657649      1.00       1.0079




 SCF PARAMETERS         Density guess:                                    ATOMIC
                        --------------------------------------------------------
                        max_scf:                                              80
                        max_scf_history:                                       0
                        max_diis:                                              4
                        --------------------------------------------------------
                        eps_scf:                                        5.00E-06
                        eps_scf_history:                                0.00E+00
                        eps_diis:                                       1.00E-01
                        eps_eigval:                                     1.00E-05
                        --------------------------------------------------------
                        level_shift [a.u.]:                                 0.00
                        --------------------------------------------------------
                        Outer loop SCF in use 
                        No variables optimised in outer loop
                        eps_scf                                         5.00E-06
                        max_scf                                                4
                        No outer loop optimization
                        step_size                                       5.00E-01

 PW_GRID| Information for grid number                                          1
 PW_GRID| Grid distributed over                                    80 processors
 PW_GRID| Real space group dimensions                                    80    1
 PW_GRID| the grid is blocked:                                                NO
 PW_GRID| Cutoff [a.u.]                                                    600.0
 PW_GRID| spherical cutoff:                                                   NO
 PW_GRID|   Bounds   1           -144     143                Points:         288
 PW_GRID|   Bounds   2           -144     143                Points:         288
 PW_GRID|   Bounds   3           -337     337                Points:         675
 PW_GRID| Volume element (a.u.^3)  0.5630E-03     Volume (a.u.^3)     31519.8467
 PW_GRID| Grid span                                                    FULLSPACE
 PW_GRID|   Distribution                         Average         Max         Min
 PW_GRID|   G-Vectors                           699840.0      699840      699840
 PW_GRID|   G-Rays                                2430.0        2430        2430
 PW_GRID|   Real Space Points                   699840.0      777600      583200

 PW_GRID| Information for grid number                                          2
 PW_GRID| Grid distributed over                                    80 processors
 PW_GRID| Real space group dimensions                                    80    1
 PW_GRID| the grid is blocked:                                                NO
 PW_GRID| Cutoff [a.u.]                                                    200.0
 PW_GRID| spherical cutoff:                                                   NO
 PW_GRID|   Bounds   1            -80      79                Points:         160
 PW_GRID|   Bounds   2            -80      79                Points:         160
 PW_GRID|   Bounds   3           -200     199                Points:         400
 PW_GRID| Volume element (a.u.^3)  0.3078E-02     Volume (a.u.^3)     31519.8467
 PW_GRID| Grid span                                                    FULLSPACE
 PW_GRID|   Distribution                         Average         Max         Min
 PW_GRID|   G-Vectors                           128000.0      128160      127840
 PW_GRID|   G-Rays                                 800.0         801         799
 PW_GRID|   Real Space Points                   128000.0      128000      128000

 PW_GRID| Information for grid number                                          3
 PW_GRID| Grid distributed over                                    80 processors
 PW_GRID| Real space group dimensions                                    80    1
 PW_GRID| the grid is blocked:                                                NO
 PW_GRID| Cutoff [a.u.]                                                     66.7
 PW_GRID| spherical cutoff:                                                   NO
 PW_GRID|   Bounds   1            -48      47                Points:          96
 PW_GRID|   Bounds   2            -48      47                Points:          96
 PW_GRID|   Bounds   3           -112     112                Points:         225
 PW_GRID| Volume element (a.u.^3)  0.1520E-01     Volume (a.u.^3)     31519.8467
 PW_GRID| Grid span                                                    FULLSPACE
 PW_GRID|   Distribution                         Average         Max         Min
 PW_GRID|   G-Vectors                            25920.0       26688       24864
 PW_GRID|   G-Rays                                 270.0         278         259
 PW_GRID|   Real Space Points                    25920.0       43200       21600

 PW_GRID| Information for grid number                                          4
 PW_GRID| Grid distributed over                                    80 processors
 PW_GRID| Real space group dimensions                                     8   10
 PW_GRID| the grid is blocked:                                                NO
[...]
     15       Ga     2      13.000    6.937   6.937            0.000     -0.874
     16       N      1       5.000    2.051   2.051            0.000      0.898
     17       Ga     2      13.000    6.943   6.942            0.000     -0.885
     18       N      1       5.000    2.058   2.058            0.000      0.884
     19       Ga     2      13.000    6.939   6.939            0.001     -0.878
     20       N      1       5.000    2.062   2.061            0.000      0.877
     21       Ga     2      13.000    6.938   6.938            0.000     -0.876
     22       N      1       5.000    2.060   2.060            0.000      0.880
     23       Ga     2      13.000    6.950   6.951           -0.000     -0.901
     24       N      1       5.000    2.048   2.054           -0.006      0.898
     25       Ga     2      13.000    6.909   6.918           -0.008     -0.827
     26       N      1       5.000    2.154   2.311           -0.157      0.535
     27       N      1       5.000    2.100   2.099            0.001      0.802
     28       Ga     2      13.000    6.934   6.933            0.001     -0.866
     29       N      1       5.000    2.089   2.089           -0.000      0.822
     30       Ga     2      13.000    6.949   6.949            0.000     -0.898
     31       N      1       5.000    2.057   2.057            0.000      0.886
     32       Ga     2      13.000    6.948   6.948            0.000     -0.896
     33       N      1       5.000    2.052   2.052            0.000      0.896
     34       Ga     2      13.000    6.939   6.938            0.000     -0.877
     35       N      1       5.000    2.060   2.060            0.000      0.881
     36       Ga     2      13.000    6.874   6.873            0.001     -0.747
     37       N      1       5.000    2.133   2.132            0.001      0.735
     38       Ga     2      13.000    6.910   6.917           -0.007     -0.827
     39       Ga     2      13.000    6.724   6.715            0.009     -0.439
     40       N      1       5.000    2.095   2.095            0.001      0.810
     41       Ga     2      13.000    6.951   6.950            0.000     -0.901
     42       N      1       5.000    2.053   2.052            0.000      0.895
     43       Ga     2      13.000    6.946   6.943            0.002     -0.889
     44       N      1       5.000    2.060   2.059            0.001      0.881
     45       Ga     2      13.000    6.938   6.938            0.001     -0.876
     46       N      1       5.000    2.062   2.062            0.000      0.875
     47       Ga     2      13.000    6.939   6.939            0.000     -0.878
     48       N      1       5.000    2.060   2.060            0.000      0.881
     49       Ga     2      13.000    6.950   6.950           -0.000     -0.900
     50       N      1       5.000    2.049   2.054           -0.005      0.896
     51       Ga     2      13.000    6.912   6.919           -0.007     -0.830
     52       N      1       5.000    2.160   2.311           -0.151      0.530
     53       N      1       5.000    2.127   2.127            0.000      0.746
     54       Ga     2      13.000    6.949   6.948            0.001     -0.897
     55       N      1       5.000    2.055   2.055            0.000      0.891
     56       Ga     2      13.000    6.933   6.933            0.000     -0.866
     57       N      1       5.000    2.057   2.057            0.000      0.885
     58       Ga     2      13.000    6.939   6.938            0.001     -0.877
     59       N      1       5.000    2.062   2.061            0.000      0.877
     60       Ga     2      13.000    6.946   6.946            0.000     -0.892
     61       N      1       5.000    2.061   2.063           -0.002      0.876
     62       Ga     2      13.000    6.949   6.950           -0.001     -0.899
     63       N      1       5.000    2.045   2.057           -0.012      0.898
     64       Ga     2      13.000    6.858   6.859           -0.002     -0.717
     65       N      1       5.000    2.098   2.099           -0.000      0.803
     66       Ga     2      13.000    6.977   6.977            0.000     -0.954
     67       N      1       5.000    2.052   2.052            0.000      0.896
     68       Ga     2      13.000    6.942   6.940            0.002     -0.882
     69       N      1       5.000    2.058   2.058            0.001      0.884
     70       Ga     2      13.000    6.937   6.937            0.001     -0.874
     71       N      1       5.000    2.062   2.062            0.000      0.876
     72       Ga     2      13.000    6.938   6.938            0.000     -0.876
     73       N      1       5.000    2.060   2.059            0.000      0.881
     74       Ga     2      13.000    6.950   6.951           -0.000     -0.901
     75       N      1       5.000    2.048   2.053           -0.005      0.899
     76       Ga     2      13.000    6.911   6.920           -0.008     -0.831
     77       N      1       5.000    2.238   2.239           -0.000      0.523
     78       Ga     2      13.000    6.991   6.991            0.000     -0.982
     79       N      1       5.000    2.050   2.050            0.000      0.901
     80       Ga     2      13.000    6.948   6.946            0.002     -0.894
     81       N      1       5.000    2.054   2.053            0.001      0.894
     82       Ga     2      13.000    6.939   6.939            0.001     -0.878
     83       N      1       5.000    2.060   2.060            0.000      0.879
     84       Ga     2      13.000    6.946   6.945            0.000     -0.891
     85       N      1       5.000    2.061   2.063           -0.002      0.877
     86       Ga     2      13.000    6.949   6.950           -0.001     -0.899
     87       N      1       5.000    2.045   2.058           -0.013      0.898
     88       Ga     2      13.000    6.857   6.859           -0.002     -0.717
     89       N      1       5.000    2.102   2.101            0.001      0.797
     90       Ga     2      13.000    6.988   6.987            0.000     -0.975
     91       N      1       5.000    2.046   2.046            0.000      0.907
     92       Ga     2      13.000    6.951   6.949            0.002     -0.900
     93       N      1       5.000    2.057   2.056            0.001      0.887
     94       Ga     2      13.000    6.941   6.940            0.001     -0.881
     95       N      1       5.000    2.060   2.060            0.000      0.880
     96       Ga     2      13.000    6.938   6.938            0.000     -0.877
     97       N      1       5.000    2.060   2.060            0.000      0.880
     98       Ga     2      13.000    6.950   6.950           -0.000     -0.900
     99       N      1       5.000    2.048   2.053           -0.005      0.898
    100       Ga     2      13.000    6.911   6.919           -0.007     -0.830
    101       N      1       5.000    2.131   2.127            0.004      0.742
    102       Ga     2      13.000    6.948   6.937            0.011     -0.885
    103       N      1       5.000    2.090   2.083            0.007      0.827
    104       Ga     2      13.000    6.936   6.934            0.002     -0.869
    105       N      1       5.000    2.062   2.061            0.001      0.877
    106       Ga     2      13.000    6.947   6.947            0.001     -0.894
    107       N      1       5.000    2.052   2.052            0.000      0.895
    108       Ga     2      13.000    6.939   6.938            0.000     -0.877
    109       N      1       5.000    2.061   2.061            0.000      0.878
    110       Ga     2      13.000    6.874   6.873            0.001     -0.746
    111       N      1       5.000    2.132   2.131            0.001      0.737
    112       Ga     2      13.000    6.911   6.921           -0.010     -0.832
    113       Ga     2      13.000    6.557   6.542            0.015     -0.098
    114       N      1       5.000    2.262   2.262            0.000      0.476
    115       Ga     2      13.000    6.976   6.976            0.001     -0.952
    116       N      1       5.000    2.060   2.060            0.000      0.880
    117       Ga     2      13.000    6.950   6.948            0.002     -0.897
    118       N      1       5.000    2.064   2.064            0.000      0.872
    119       Ga     2      13.000    6.939   6.939            0.000     -0.878
    120       N      1       5.000    2.063   2.063            0.000      0.874
    121       Ga     2      13.000    6.940   6.939            0.000     -0.879
    122       N      1       5.000    2.060   2.060            0.000      0.879
    123       Ga     2      13.000    6.950   6.951           -0.001     -0.901
    124       N      1       5.000    2.047   2.053           -0.007      0.900
    125       Ga     2      13.000    6.912   6.922           -0.010     -0.834
    126       N      1       5.000    2.134   2.328           -0.194      0.538
    127       N      1       5.000    2.135   2.055            0.081      0.810
    128       N      1       5.000    2.086   2.079            0.007      0.835
    129       Ga     2      13.000    6.942   6.939            0.003     -0.881
    130       N      1       5.000    2.059   2.058            0.001      0.883
    131       Ga     2      13.000    6.950   6.949            0.001     -0.899
    132       N      1       5.000    2.053   2.052            0.000      0.895
    133       Ga     2      13.000    6.938   6.938            0.000     -0.876
    134       N      1       5.000    2.059   2.059            0.000      0.881
    135       Ga     2      13.000    6.874   6.873            0.001     -0.746
    136       N      1       5.000    2.131   2.130            0.001      0.738
    137       Ga     2      13.000    6.912   6.923           -0.012     -0.835
    138       Ga     2      13.000    6.956   6.471            0.485     -0.427
    139       N      1       5.000    2.139   2.057            0.082      0.804
    140       Ga     2      13.000    7.004   6.992            0.013     -0.996
    141       N      1       5.000    2.053   2.044            0.009      0.903
    142       Ga     2      13.000    6.945   6.942            0.002     -0.887
    143       N      1       5.000    2.058   2.057            0.001      0.885
    144       Ga     2      13.000    6.940   6.939            0.001     -0.879
    145       N      1       5.000    2.061   2.060            0.000      0.879
    146       Ga     2      13.000    6.938   6.938            0.000     -0.876
    147       N      1       5.000    2.060   2.060            0.000      0.880
    148       Ga     2      13.000    6.950   6.950           -0.001     -0.900
    149       N      1       5.000    2.046   2.055           -0.009      0.900
    150       Ga     2      13.000    6.912   6.923           -0.012     -0.835
    151       N      1       5.000    2.112   2.346           -0.234      0.542
    152       N      1       5.000    2.066   2.063            0.003      0.872
    153       Ga     2      13.000    6.948   6.936            0.012     -0.885
    154       N      1       5.000    2.056   2.049            0.007      0.896
    155       Ga     2      13.000    6.947   6.945            0.002     -0.892
    156       N      1       5.000    2.057   2.056            0.001      0.886
    157       Ga     2      13.000    6.940   6.939            0.001     -0.879
    158       N      1       5.000    2.062   2.062            0.000      0.877
    159       Ga     2      13.000    6.946   6.945            0.000     -0.891
    160       N      1       5.000    2.061   2.063           -0.002      0.876
    161       Ga     2      13.000    6.949   6.950           -0.002     -0.899
    162       N      1       5.000    2.042   2.058           -0.017      0.900
    163       Ga     2      13.000    6.857   6.859           -0.002     -0.716
    164       N      1       5.000    2.134   2.128            0.007      0.738
    165       Ga     2      13.000    6.997   6.996            0.001     -0.992
    166       N      1       5.000    2.056   2.055            0.001      0.889
    167       Ga     2      13.000    6.934   6.934            0.000     -0.868
    168       N      1       5.000    2.065   2.065            0.000      0.870
    169       Ga     2      13.000    6.938   6.937            0.001     -0.874
    170       N      1       5.000    2.064   2.063            0.000      0.873
    171       Ga     2      13.000    6.939   6.939            0.000     -0.877
    172       N      1       5.000    2.061   2.061            0.000      0.879
    173       Ga     2      13.000    6.950   6.951           -0.001     -0.901
    174       N      1       5.000    2.046   2.054           -0.007      0.900
    175       Ga     2      13.000    6.910   6.921           -0.011     -0.831
    176       N      1       5.000    2.120   2.121           -0.001      0.760
    177       Ga     2      13.000    7.042   7.041            0.001     -1.083
    178       N      1       5.000    2.066   2.065            0.001      0.869
    179       Ga     2      13.000    6.933   6.931            0.002     -0.864
    180       N      1       5.000    2.059   2.058            0.001      0.882
    181       Ga     2      13.000    6.939   6.938            0.001     -0.878
    182       N      1       5.000    2.064   2.064            0.000      0.873
    183       Ga     2      13.000    6.946   6.946            0.000     -0.892
    184       N      1       5.000    2.062   2.064           -0.002      0.874
    185       Ga     2      13.000    6.949   6.951           -0.001     -0.900
    186       N      1       5.000    2.044   2.058           -0.015      0.898
    187       Ga     2      13.000    6.857   6.859           -0.002     -0.716
    188       N      1       5.000    2.152   2.052            0.100      0.796
    189       Ga     2      13.000    6.975   6.963            0.011     -0.938
    190       N      1       5.000    2.056   2.047            0.009      0.896
    191       Ga     2      13.000    6.943   6.940            0.003     -0.884
    192       N      1       5.000    2.061   2.060            0.001      0.879
    193       Ga     2      13.000    6.938   6.937            0.001     -0.874
    194       N      1       5.000    2.063   2.063            0.000      0.874
    195       Ga     2      13.000    6.939   6.939            0.000     -0.878
    196       N      1       5.000    2.060   2.059            0.000      0.881
    197       Ga     2      13.000    6.950   6.951           -0.001     -0.900
    198       N      1       5.000    2.046   2.055           -0.009      0.899
    199       Ga     2      13.000    6.912   6.924           -0.012     -0.836
    200       O      3       6.000    3.012   3.011            0.001     -0.024
    201       C      4       4.000    2.432   2.432            0.000     -0.865
    202       H      5       1.000    0.281   0.281            0.000      0.438
    203       H      5       1.000    0.281   0.281           -0.000      0.439
    204       H      5       1.000    0.280   0.280            0.000      0.441
    205       Ga     2      13.000    6.998   6.987            0.010     -0.985
    206       H      5       1.000    0.234   0.234            0.000      0.533
    207       C      4       4.000    2.131   2.131           -0.000     -0.262
    208       H      5       1.000    0.268   0.268            0.000      0.464
    209       H      5       1.000    0.271   0.271           -0.000      0.457

  Total Charge                                                            0.002
 !-----------------------------------------------------------------------------!

 ENERGY| Total FORCE_EVAL ( QS ) energy (a.u.):            -8487.521851895060536


 --------  Informations at step =    96 ------------
  Optimization Method        =                 BFGS
  Total Energy               =     -8487.5218518951
  Real energy change         =         0.0004823612
  Predicted change in energy =        -0.0000752202
  Scaling factor             =         0.8681538641
  Step size                  =         0.2379529070
  Trust radius               =         0.4724315332
  Decrease in energy         =                   NO
  Used time                  =              288.726

  Convergence check :
  Max. step size             =         0.2379529070
  Conv. limit for step size  =         0.0030000000
  Convergence in step size   =                   NO
  RMS step size              =         0.0165601644
  Conv. limit for RMS step   =         0.0015000000
  Convergence in RMS step    =                   NO
  Max. gradient              =         0.0028364778
  Conv. limit for gradients  =         0.0004500000
  Conv. for gradients        =                   NO
  RMS gradient               =         0.0005786195
  Conv. limit for RMS grad.  =         0.0003000000
  Conv. for gradients        =                   NO
 ---------------------------------------------------

 --------------------------
 OPTIMIZATION STEP:     97
 --------------------------

 Spin 1

 Number of electrons:                                                        910
 Number of occupied orbitals:                                                910
 Number of molecular orbitals:                                               910

 Spin 2

 Number of electrons:                                                        910
 Number of occupied orbitals:                                                910
 Number of molecular orbitals:                                               910

 Number of orbital functions:                                               3869
 Number of independent orbital functions:                                   3869

 Parameters for the always stable predictor-corrector (ASPC) method:

  ASPC order: 3

  B(1) =   3.000000
  B(2) =  -3.428571
  B(3) =   1.928571
  B(4) =  -0.571429
  B(5) =   0.071429

 Parameters for the always stable predictor-corrector (ASPC) method:

  ASPC order: 3

  B(1) =   3.000000
  B(2) =  -3.428571
  B(3) =   1.928571
  B(4) =  -0.571429
  B(5) =   0.071429

 Extrapolation method: ASPC


 SCF WAVEFUNCTION OPTIMIZATION

  ----------------------------------- OT ---------------------------------------
  Minimizer      : CG                  : conjugate gradient
  Preconditioner : FULL_ALL            : diagonalization, state selective
  Precond_solver : DEFAULT
  Line search    : 2PNT                : 2 energies, one gradient
  stepsize       :    0.15000000                  energy_gap     :    0.08000000
  eps_taylor     :   0.10000E-15                  max_taylor     :             4
  ----------------------------------- OT ---------------------------------------

  Step     Update method      Time    Convergence         Total energy    Change
  ------------------------------------------------------------------------------
     1 OT CG       0.15E+00   27.2     0.00014384     -8487.4980193185 -8.49E+03
     2 OT LS       0.14E+00    7.8                    -8487.5077770359
     3 OT CG       0.14E+00   18.0     0.00012670     -8487.5078690872 -9.85E-03
     4 OT LS       0.21E+00    8.3                    -8487.5183049900
     5 OT CG       0.21E+00   17.9     0.00004875     -8487.5197844235 -1.19E-02
     6 OT LS       0.14E+00    8.2                    -8487.5206669157
     7 OT CG       0.14E+00   17.6     0.00002219     -8487.5209547925 -1.17E-03
     8 OT LS       0.20E+00    8.0                    -8487.5212692035
     9 OT CG       0.20E+00   18.1     0.00001431     -8487.5213030189 -3.48E-04
    10 OT LS       0.31E+00    7.9                    -8487.5214986093
    11 OT CG       0.31E+00   18.4     0.00001750     -8487.5215276192 -2.25E-04
    12 OT LS       0.39E+00    8.1                    -8487.5219357445
    13 OT CG       0.39E+00   18.4     0.00001857     -8487.5219519627 -4.24E-04
