     209
 i =        1, E =     -8487.4695064326
  N         0.0684762260        2.1346462281        2.5657226604
 Ga         0.0722231233        0.1769393703        2.9462940083
  N         0.0924747873        0.1400755082        5.0638600201
 Ga         0.0737901781        1.9667625223        5.8435667687
  N         0.0714143154        1.9759229623        7.8393042810
 Ga         0.0658134983        0.1223858381        8.4731520162
  N         0.0697082006        0.1225062537       10.4489802527
 Ga         0.0764818458        1.9577427180       11.1209984976
  N         0.0742709099        1.9398973668       13.1089372177
 Ga         0.0757691437        0.1220321118       13.9229949177
  N         0.0731446277        0.1218162311       16.1127159569
 Ga         0.0702787506        2.1719719608       16.5348975682
 Ga         0.1206585097        3.8396800499        1.4029049833
  N        -1.3911270534        4.7242694912        2.5436679119
 Ga        -1.6209162571        2.8981726701        3.2797023610
  N        -1.5536881432        2.9100924969        5.2608199047
 Ga        -1.5667421277        4.7776563550        5.8683793577
  N        -1.5428466042        4.7690597820        7.8543001062
 Ga        -1.5163044395        2.9155675737        8.5104207432
  N        -1.5196494953        2.9168455164       10.4906881209
 Ga        -1.5483162724        4.7767652381       11.1301963774
  N        -1.5670885164        4.7837504920       13.1164154007
 Ga        -1.5235789628        2.9120800412       13.6695065228
  N        -1.5522977178        2.8976473851       15.6259555918
 Ga        -1.3685553837        4.6672258387       16.5353157318
  N         0.0717714108        3.8352704787       17.6751222798
  N        -3.1192631654        7.6756030359        2.5759669838
 Ga        -3.1016398183        5.6691528724        2.9517754829
  N        -3.1286845318        5.7080089820        5.0967486340
 Ga        -3.1425721870        7.5290862876        5.8581085362
  N        -3.1395616242        7.5489007810        7.8428041646
 Ga        -3.1387443173        5.7044020401        8.5045168766
  N        -3.1401775863        5.6959540351       10.4710993263
 Ga        -3.1476784323        7.5364200570       11.1212979720
  N        -3.1450815093        7.5143686657       13.1106097129
 Ga        -3.1441390016        5.6939027167       13.9278560323
  N        -3.1420367002        5.6916761546       16.1142088500
 Ga        -3.1451567522        7.7362423107       16.5334217520
 Ga        -3.1465804923        9.4364939320        1.5802445109
  N        -4.6314216040       10.2900505061        2.5961899923
 Ga        -4.8609771640        8.4045176483        3.3142314145
  N        -4.7489134235        8.4774097620        5.2724542872
 Ga        -4.7674329224       10.3512676266        5.8443734205
  N        -4.7583727409       10.3440935694        7.8360991804
 Ga        -4.7551172829        8.4825012140        8.4658120960
  N        -4.7448550254        8.4841700404       10.4601942408
 Ga        -4.7700724807       10.3436027635       11.1105287938
  N        -4.7845364096       10.3531121732       13.1017648002
 Ga        -4.7417659871        8.4866993486       13.6700423857
  N        -4.7683107067        8.4708659708       15.6271235194
 Ga        -4.5862571428       10.2380984646       16.5341143143
  N        -3.1419413484        9.4009089065       17.6718777822
  N         3.3124487715        2.0162666698        2.6470983974
 Ga         3.3202310598        0.2748666245        3.3459906241
  N         3.3026467545        0.1330582510        5.3055961130
 Ga         3.3152865899        2.0058543367        5.9009311278
  N         3.3008531500        1.9887128699        7.8829122618
 Ga         3.2869761456        0.1208254027        8.4894584945
  N         3.2875590675        0.1139011922       10.4771049475
 Ga         3.2869484394        1.9799915388       11.0844471762
  N         3.2880145636        1.9786357649       13.0490564043
 Ga         3.2868633344        0.1069320525       13.6698840463
  N         3.2866434890        0.1386937411       15.6272308203
 Ga         3.2886849851        1.9781752260       15.9017769884
  N         1.5646199646        4.7049816519        2.6214111758
 Ga         1.7709063789        2.8705613313        3.3426871455
  N         1.6906478894        2.9132284802        5.3131060914
 Ga         1.6991658961        4.7718964563        5.8930700727
  N         1.6895485289        4.7737879931        7.8679354241
 Ga         1.6766069744        2.9096170212        8.4871112272
  N         1.6718038195        2.9120600420       10.4759056802
 Ga         1.6995178483        4.7745023433       11.1154142125
  N         1.7142498866        4.7829805576       13.1056316818
 Ga         1.6681589850        2.9153541387       13.6720755302
  N         1.6964521758        2.8984524465       15.6294672250
 Ga         1.5122498873        4.6690057981       16.5365078759
  N         0.0665367252        7.5434352316        2.7184722381
 Ga         0.0802442542        5.6998721766        3.4004293467
  N         0.0713074991        5.7160475123        5.3314991435
 Ga         0.0999180726        7.5660206844        5.9466376473
  N         0.0840851511        7.5605737384        7.9040326108
 Ga         0.0733798257        5.6888172855        8.4979437875
  N         0.0730996014        5.6835910949       10.4817477298
 Ga         0.0760847934        7.5522238253       11.0791442232
  N         0.0730329251        7.5500442315       13.0445028698
 Ga         0.0750990324        5.6798858487       13.6714179030
  N         0.0727645546        5.7118106683       15.6275037904
 Ga         0.0698411342        7.5479284363       15.9094619221
  N        -1.6197641344       10.2795039294        2.5903447838
 Ga        -1.4943006910        8.4714114647        3.4003034311
  N        -1.5127586142        8.4793946294        5.3175381951
 Ga        -1.5088686748       10.3572115416        5.8892644581
  N        -1.5271406648       10.3399928552        7.8670543767
 Ga        -1.5427076707        8.4857051539        8.4997221182
  N        -1.5456643146        8.4843441837       10.4828725138
 Ga        -1.5205337593       10.3459671837       11.1209018135
  N        -1.5040469867       10.3537824509       13.1094960602
 Ga        -1.5467687554        8.4852040870       13.6713436153
  N        -1.5201553795        8.4691871564       15.6298418533
 Ga        -1.7014029762       10.2395706123       16.5331722105
  N         6.6581105428        2.0719257778        2.6254990698
 Ga         6.5570630182        0.1388107470        3.0084755662
  N         6.4980984077        0.1297528614        5.1400724206
 Ga         6.4598687614        1.9464928730        5.9183022728
  N         6.4895304889        1.9716019605        7.8901348802
 Ga         6.5144924129        0.1159634979        8.5026011504
  N         6.5096714763        0.1193590322       10.4696553908
 Ga         6.5069715049        1.9626171456       11.1195246863
  N         6.5050083564        1.9418914649       13.1091739116
 Ga         6.5027850695        0.1234032857       13.9252757755
  N         6.5056961644        0.1209735816       16.1139719344
 Ga         6.5040262146        2.1697226648       16.5345073003
 Ga         8.1059548652        2.9285119108        1.2532874623
  N         4.8768898838        4.7840656183        2.5337357045
 Ga         4.9292459959        2.8412248910        3.1808288685
  N         4.9232604327        2.9297876292        5.2143805789
 Ga         4.9106246036        4.7761250357        5.8486035801
  N         4.8989476154        4.7716757995        7.8387025381
 Ga         4.8993749886        2.9246219283        8.5139000700
  N         4.9039178980        2.9195243840       10.4930772459
 Ga         4.8790349409        4.7804586652       11.1248127340
  N         4.8638462570        4.7844588146       13.1115422077
 Ga         4.9089546613        2.9147033890       13.6709818281
  N         4.8810173536        2.8988379992       15.6283423189
 Ga         5.0634477743        4.6680942919       16.5345146485
  N         6.5098383924        3.8361640536       17.6723215572
  N         3.2919274887        7.6603589185        2.5940104336
  N         3.2906565407        5.6845651640        5.1438678940
 Ga         3.2947310944        7.5531140828        5.8191494055
  N         3.2908413436        7.5527921391        7.8143038101
 Ga         3.2979343144        5.7061493304        8.4793163564
  N         3.2910154818        5.6978955836       10.4532684122
 Ga         3.2936884127        7.5351322835       11.1143280568
  N         3.2899762397        7.5123267702       13.1061823952
 Ga         3.2883878142        5.6914689798       13.9248865618
  N         3.2883982541        5.6919311026       16.1134026332
 Ga         3.2871427881        7.7323665989       16.5237520622
 Ga         3.4107773949        9.4989325208        1.3830808989
  N         1.7712280276       10.3072734146        2.5789153919
 Ga         1.6747187736        8.5193936891        3.2788463764
  N         1.6731412447        8.4944840072        5.2566879642
 Ga         1.6682273939       10.3611925023        5.8466099223
  N         1.6835025965       10.3427530320        7.8378894117
 Ga         1.7032421429        8.4929523137        8.4900880033
  N         1.6950622010        8.4868282025       10.4753258835
 Ga         1.6684173039       10.3427362198       11.1262822845
  N         1.6486092123       10.3529473548       13.1140781004
 Ga         1.6923308116        8.4831813362       13.6689456396
  N         1.6608314763        8.4669500711       15.6270818957
 Ga         1.8420390671       10.2413287195       16.5229690765
  N         3.2916795859        9.4043766867       17.6487206778
  N         9.5648880477        2.1120060527        2.6427712502
 Ga         9.6625001498        0.2549241772        3.2509195778
  N         9.7201676770        0.1493042792        5.2443067835
 Ga         9.7648768186        1.9597071068        5.9751214902
  N         9.7353356521        1.9720343776        7.9285304378
 Ga         9.7299989703        0.1003954429        8.4943353579
  N         9.7232296274        0.1053608894       10.4784924112
 Ga         9.7215255413        1.9785285755       11.0746890676
  N         9.7204496099        1.9786268623       13.0419029399
 Ga         9.7225011457        0.1098806084       13.6675133970
  N         9.7201316859        0.1442643478       15.6260399302
 Ga         9.7210455270        1.9817367151       15.9088659730
  N         8.1349195184        4.6218215995        2.5906870105
 Ga         8.1106388568        2.9372396835        3.6750653555
  N         8.1186816789        2.9227152688        5.5317484700
 Ga         8.1274348379        4.8523281549        5.8897935373
  N         8.1173747163        4.7987423004        7.8675152463
 Ga         8.1056302528        2.9237428760        8.4841552937
  N         8.1037014810        2.9178440036       10.4757168072
 Ga         8.1264434014        4.7766788186       11.1204641496
  N         8.1443527789        4.7837018696       13.1107351010
 Ga         8.1016374794        2.9136759534       13.6715554470
  N         8.1279612602        2.8978478944       15.6301246389
 Ga         7.9500030865        4.6712790705       16.5348173090
  N         6.5265779118        7.5207359435        2.5691018271
 Ga         6.5759503054        5.7166385798        3.1424506255
  N         6.5064017309        5.6835576979        5.1776319268
 Ga         6.4866861563        7.5383739576        5.8385372905
  N         6.4963181248        7.5508511423        7.8332386618
 Ga         6.4979819795        5.7041077052        8.4929512484
  N         6.5009254604        5.6876636252       10.4772595739
 Ga         6.5028278119        7.5558757898       11.0740888051
  N         6.5042766703        7.5512298177       13.0403863256
 Ga         6.5041765717        5.6812536831       13.6713308100
  N         6.5034626124        5.7111306676       15.6285763525
 Ga         6.5077002106        7.5482134132       15.9090686786
  N         4.7934500505       10.3237831427        2.5388664545
 Ga         5.0073107278        8.4279121959        3.2277926138
  N         4.8964043636        8.4988588812        5.2257677803
 Ga         4.9222214166       10.3582321156        5.7983372287
  N         4.9030576758       10.3429917662        7.8043395112
 Ga         4.8934988707        8.4904405126        8.4585089681
  N         4.8882996849        8.4874755312       10.4546024464
 Ga         4.9151763503       10.3418412817       11.1166568466
  N         4.9311408725       10.3528573930       13.1074360353
 Ga         4.8859410856        8.4844620898       13.6692604780
  N         4.9155606083        8.4665071089       15.6286764460
 Ga         4.7370696428       10.2441572647       16.5228299112
  O         0.0841739251        3.8807983832       -0.4184242299
  C         0.6428462916        2.7833724984       -1.1557331137
  H         1.6141277778        2.4345602015       -0.7670746128
  H        -0.0382842180        1.9165206481       -1.1946605363
  H         0.7964982588        3.1419249958       -2.1854607597
 Ga         3.1796156469        5.7368311462        3.1152506581
  H         0.0200977971        7.5029004512        1.6938218038
  C         4.8345885192        4.7194560699        1.1064325588
  H         5.6554457661        5.1562726685        0.4957889121
  H         3.9530682393        4.2808637505        0.5884301393
     209
 i =        2, E =     -8487.4872311921
  N         0.0663646222        2.1337422090        2.5717114955
 Ga         0.0666262935        0.1732290874        2.9193278670
  N         0.0823822605        0.1351757377        5.0518602950
 Ga         0.0731899643        1.9626376445        5.8385718995
  N         0.0719080515        1.9760332531        7.8342500136
 Ga         0.0682297449        0.1239677224        8.4765085730
  N         0.0704212905        0.1227842873       10.4502654867
 Ga         0.0760744604        1.9586407544       11.1221182759
  N         0.0739230021        1.9401564716       13.1089432276
 Ga         0.0746017524        0.1213905840       13.9236723520
  N         0.0719013437        0.1212737873       16.1111340176
 Ga         0.0699133025        2.1714360776       16.5360092098
 Ga         0.0957448958        3.8277517305        1.3936204514
  N        -1.3923511078        4.7239991282        2.5425725387
 Ga        -1.6223532319        2.9024548697        3.2830664929
  N        -1.5539009052        2.9088359084        5.2636393589
 Ga        -1.5659899734        4.7772070915        5.8679337067
  N        -1.5424954858        4.7702501305        7.8525253968
 Ga        -1.5147536885        2.9166279448        8.5118230892
  N        -1.5197021022        2.9177848294       10.4900333199
 Ga        -1.5491470437        4.7772128957       11.1305671199
  N        -1.5671519916        4.7839676611       13.1146728343
 Ga        -1.5247095161        2.9124886330       13.6701376302
  N        -1.5538941557        2.8985991789       15.6255193170
 Ga        -1.3667156062        4.6663197851       16.5366702431
  N         0.0744146809        3.8335989648       17.6735350005
  N        -3.1194472751        7.6756230381        2.5739668722
 Ga        -3.0956562666        5.6686596085        2.9527490063
  N        -3.1286279212        5.7094194249        5.0978222269
 Ga        -3.1428572113        7.5285690904        5.8615309723
  N        -3.1395088718        7.5487872011        7.8433786686
 Ga        -3.1377170400        5.7048092005        8.5074286873
  N        -3.1405840052        5.6965514710       10.4709791857
 Ga        -3.1475757522        7.5362307110       11.1222429333
  N        -3.1452982927        7.5145814411       13.1095234916
 Ga        -3.1440806507        5.6938103541       13.9272281690
  N        -3.1423674448        5.6921582666       16.1138848665
 Ga        -3.1450410960        7.7367992760       16.5338082242
 Ga        -3.1486977311        9.4360830506        1.5613006709
  N        -4.6346747865       10.2870280941        2.5918551525
 Ga        -4.8526335807        8.4063527696        3.3133965133
  N        -4.7492652098        8.4780444998        5.2714984101
 Ga        -4.7713229192       10.3552089043        5.8387297181
  N        -4.7585227743       10.3438922809        7.8299181256
 Ga        -4.7519618800        8.4847770718        8.4703166422
  N        -4.7440862786        8.4837687161       10.4610710360
 Ga        -4.7694948012       10.3428910731       11.1115991600
  N        -4.7846217184       10.3529214128       13.1014671580
 Ga        -4.7424338002        8.4861162586       13.6702932521
  N        -4.7686767230        8.4698869834       15.6265187940
 Ga        -4.5870446099       10.2379743796       16.5343059243
  N        -3.1408979508        9.4022782011       17.6724954768
  N         3.3093893132        2.0152574767        2.6422141294
 Ga         3.3134606209        0.2695871967        3.3420103292
  N         3.3034401230        0.1347074432        5.3003009660
 Ga         3.3120352078        2.0056306264        5.9019499420
  N         3.3010707461        1.9892536389        7.8815341629
 Ga         3.2868350263        0.1199793014        8.4899753663
  N         3.2879724652        0.1134412230       10.4758911770
 Ga         3.2871719013        1.9799723594       11.0853255385
  N         3.2882163016        1.9787730740       13.0480344296
 Ga         3.2866571790        0.1074537522       13.6705893653
  N         3.2863521411        0.1394657733       15.6276213382
 Ga         3.2883548300        1.9785380514       15.9070935460
  N         1.5597525050        4.7068328693        2.5967720259
 Ga         1.7658077124        2.8724805528        3.3374214069
  N         1.6904556654        2.9138199734        5.3071071204
 Ga         1.7016735907        4.7706882542        5.8917786013
  N         1.6902354812        4.7744395744        7.8641516934
 Ga         1.6758002735        2.9093357971        8.4888454581
  N         1.6718911967        2.9129593643       10.4756747253
 Ga         1.6995482198        4.7749989321       11.1170639810
  N         1.7145223536        4.7834815775       13.1056771236
 Ga         1.6684697939        2.9154041140       13.6729903707
  N         1.6972633540        2.8982013645       15.6298443093
 Ga         1.5123226667        4.6696893617       16.5376569996
  N         0.0761639250        7.5464596669        2.7262305817
 Ga         0.0706552513        5.6934583349        3.3951697985
  N         0.0759634772        5.7173586554        5.3259619459
 Ga         0.0883517414        7.5617854512        5.9606855849
  N         0.0801779164        7.5588534318        7.9120379806
 Ga         0.0730181446        5.6867428287        8.5028670298
  N         0.0730781026        5.6833044972       10.4829057400
 Ga         0.0758287218        7.5522073128       11.0798547690
  N         0.0732177246        7.5503238665       13.0423995566
 Ga         0.0745674004        5.6806617401       13.6718213020
  N         0.0712615230        5.7128273244       15.6267905323
 Ga         0.0708427140        7.5488921279       15.9108698999
  N        -1.6189898007       10.2795401199        2.5896002268
 Ga        -1.4995035505        8.4701318476        3.3957553650
  N        -1.5139685843        8.4797568818        5.3133145032
 Ga        -1.5075697910       10.3582138524        5.8864031405
  N        -1.5262694937       10.3399110462        7.8627181822
 Ga        -1.5452619798        8.4872965886        8.5041888026
  N        -1.5460270307        8.4843489509       10.4835883720
 Ga        -1.5209657927       10.3453346202       11.1228619848
  N        -1.5038170284       10.3539813037       13.1098308602
 Ga        -1.5465555457        8.4846875226       13.6714971742
  N        -1.5203055455        8.4682131404       15.6292518155
 Ga        -1.7000779666       10.2396708969       16.5334029831
  N         6.6515279293        2.0662890846        2.6289566099
 Ga         6.5514484316        0.1357476927        2.9998952418
  N         6.5045242357        0.1238939240        5.1292820041
 Ga         6.4680737451        1.9439701887        5.9143738065
  N         6.4889366533        1.9705620129        7.8850696974
 Ga         6.5114618243        0.1175576502        8.5091469576
  N         6.5088650654        0.1203421405       10.4728617244
 Ga         6.5079878992        1.9640323601       11.1215527198
  N         6.5052744671        1.9422006021       13.1095816662
 Ga         6.5043513884        0.1229658466       13.9252569262
  N         6.5063931328        0.1204821298       16.1125885305
 Ga         6.5046326964        2.1678504771       16.5337948828
 Ga         8.0981883235        2.9406231478        1.2191481945
  N         4.8920602396        4.7915244636        2.4600572725
 Ga         4.9256425214        2.8130023663        3.1916163090
  N         4.9250749833        2.9280327264        5.2171845212
 Ga         4.9060138084        4.7780127929        5.8446808969
  N         4.8982718482        4.7728807185        7.8337656378
 Ga         4.9000921753        2.9244179108        8.5164301266
  N         4.9047515665        2.9202447750       10.4933693929
 Ga         4.8797152654        4.7811392160       11.1263694349
  N         4.8640100553        4.7850107368       13.1113162183
 Ga         4.9087356754        2.9150137247       13.6713330732
  N         4.8805418712        2.8990280576       15.6286459747
 Ga         5.0626714769        4.6692335904       16.5337299626
  N         6.5094677171        3.8346203935       17.6718100464
  N         3.2932259740        7.6857453603        2.5695518841
  N         3.2873358533        5.6985129284        5.1250256335
 Ga         3.2980582185        7.5587713234        5.8301546455
  N         3.2901829009        7.5509773581        7.8194912408
 Ga         3.2974398250        5.7052067928        8.4840935632
  N         3.2913406254        5.6984212469       10.4544088066
 Ga         3.2946853921        7.5355748395       11.1160136346
  N         3.2902836471        7.5129923155       13.1047220132
 Ga         3.2887082288        5.6929777454       13.9253265006
  N         3.2880661552        5.6935327342       16.1118854834
 Ga         3.2871294167        7.7375081527       16.5288725505
 Ga         3.3996729261        9.4846491410        1.2967787469
  N         1.7914937994       10.2921243632        2.5677832956
 Ga         1.6814350693        8.5021921124        3.3223359509
  N         1.6636705022        8.4883652272        5.2779275810
 Ga         1.6706442257       10.3628919665        5.8570724466
  N         1.6815277870       10.3436326121        7.8430082458
 Ga         1.7017678281        8.4912084691        8.4945438859
  N         1.6957131324        8.4859984003       10.4765231706
 Ga         1.6686442426       10.3426625487       11.1270559117
  N         1.6491895639       10.3529061388       13.1120392654
 Ga         1.6921852362        8.4832550497       13.6692717791
  N         1.6608638796        8.4675436246       15.6241420744
 Ga         1.8472479082       10.2382945812       16.5281392184
  N         3.2929637861        9.4038434715       17.6601384205
  N         9.5719941708        2.1006831676        2.6498543252
 Ga         9.6769843004        0.2676293938        3.2786574429
  N         9.7194400769        0.1569128999        5.2561276340
 Ga         9.7610435978        1.9689702743        5.9821061168
  N         9.7357277443        1.9751063015        7.9324511940
 Ga         9.7310109988        0.1034065411        8.4986076461
  N         9.7235402915        0.1062566839       10.4806157799
 Ga         9.7212879404        1.9800458250       11.0750492851
  N         9.7200645529        1.9790063493       13.0398169231
 Ga         9.7224075769        0.1106074824       13.6680771931
  N         9.7195979291        0.1442269494       15.6234535965
 Ga         9.7207471943        1.9806012439       15.9103787590
  N         8.1382185473        4.6295202376        2.5937263795
 Ga         8.1115260268        2.9425093419        3.6542406876
  N         8.1190010180        2.9221530830        5.5133658606
 Ga         8.1327014185        4.8462046460        5.8942036589
  N         8.1180137543        4.8000852233        7.8694097035
 Ga         8.1046423405        2.9242400729        8.4846798005
  N         8.1033739552        2.9188119094       10.4740836353
 Ga         8.1270933884        4.7767360276       11.1211913288
  N         8.1441047269        4.7839844115       13.1094902033
 Ga         8.1021972549        2.9142679695       13.6716884800
  N         8.1286121224        2.8987531252       15.6297923715
 Ga         7.9503009578        4.6714949873       16.5342681503
  N         6.5213022045        7.5203713909        2.5845919370
 Ga         6.6012535522        5.7188966751        3.1550075715
  N         6.5093302240        5.6857404703        5.1836911847
 Ga         6.4965029478        7.5366446112        5.8611826111
  N         6.5009418791        7.5487787851        7.8464848463
 Ga         6.4986754206        5.7018210551        8.4991329649
  N         6.5016176267        5.6875074169       10.4795381302
 Ga         6.5032928137        7.5560850974       11.0742529620
  N         6.5041957772        7.5513597828       13.0380845419
 Ga         6.5045157970        5.6821515240       13.6712491056
  N         6.5041334152        5.7117603786       15.6279546922
 Ga         6.5059652663        7.5492365918       15.9106785647
  N         4.7707598943       10.3012542664        2.5525308134
 Ga         5.0035908266        8.4135756026        3.2683253367
  N         4.9089491138        8.4901200759        5.2463080740
 Ga         4.9204325219       10.3570992609        5.8044765824
  N         4.9044753129       10.3442749341        7.8072671443
 Ga         4.8946432403        8.4901579740        8.4596675166
  N         4.8885250673        8.4865577022       10.4535734845
 Ga         4.9154818649       10.3410112980       11.1171755370
  N         4.9304660823       10.3525385671       13.1056165510
 Ga         4.8863884880        8.4843738328       13.6697092999
  N         4.9152099412        8.4666395802       15.6259132930
 Ga         4.7328702195       10.2416952963       16.5279167744
  O         0.0919383455        3.8866901400       -0.4220240834
  C         0.6438784005        2.7862891923       -1.1596591658
  H         1.6119373896        2.4385658273       -0.7615884305
  H        -0.0402733254        1.9213705715       -1.1838909211
  H         0.8001134678        3.1376093086       -2.1901990781
 Ga         3.1575003502        5.7606220891        3.0913890831
  H         0.0207419028        7.5044631932        1.7004137508
  C         4.8372742423        4.7390607851        1.1227547806
  H         5.6482803066        5.1429616758        0.5057127864
  H         3.9761571741        4.2892448645        0.6137162286
     209
 i =        3, E =     -8487.4931130290
  N         0.0640388397        2.1340997208        2.5701375266
 Ga         0.0668666365        0.1717374894        2.9005881524
  N         0.0800407270        0.1345862648        5.0458586855
 Ga         0.0738832464        1.9597403821        5.8326333179
  N         0.0737163697        1.9764077244        7.8289763773
 Ga         0.0711620459        0.1261765371        8.4775965733
  N         0.0718234733        0.1235816545       10.4498440336
 Ga         0.0759814205        1.9592739128       11.1242497655
  N         0.0735214380        1.9405104955       13.1098471044
 Ga         0.0733404647        0.1209330805       13.9257159269
  N         0.0718640521        0.1208566361       16.1104006051
 Ga         0.0708388463        2.1699947141       16.5363306580
 Ga         0.0728347816        3.8154860582        1.3824227755
  N        -1.3927819908        4.7181985509        2.5433327620
 Ga        -1.6266838269        2.8976442630        3.2912300316
  N        -1.5512752491        2.9110399131        5.2700773847
 Ga        -1.5632691579        4.7765778974        5.8717099974
  N        -1.5419545958        4.7714222399        7.8539182882
 Ga        -1.5122068573        2.9170667647        8.5114843243
  N        -1.5189103746        2.9185981719       10.4885020914
 Ga        -1.5496318292        4.7770140891       11.1321516716
  N        -1.5677733126        4.7844562296       13.1140812634
 Ga        -1.5255517497        2.9131277433       13.6713714019
  N        -1.5545165153        2.8990337168       15.6262007470
 Ga        -1.3665331713        4.6662775724       16.5370728138
  N         0.0761633799        3.8327588849       17.6707780021
  N        -3.1188784377        7.6785117527        2.5722997065
 Ga        -3.0926851138        5.6683577231        2.9543906447
  N        -3.1256603128        5.7093200734        5.1022063953
 Ga        -3.1428233099        7.5288801766        5.8650071456
  N        -3.1394069456        7.5486067710        7.8452730625
 Ga        -3.1369208427        5.7047323919        8.5099332718
  N        -3.1403435686        5.6970640995       10.4711010592
 Ga        -3.1474634169        7.5359556566       11.1246545459
  N        -3.1453922333        7.5143342827       13.1094332157
 Ga        -3.1440132915        5.6940569793       13.9281765767
  N        -3.1436108753        5.6930443346       16.1134424240
 Ga        -3.1447880836        7.7377169329       16.5346237267
 Ga        -3.1500679885        9.4379957716        1.5389938154
  N        -4.6373264434       10.2864293838        2.5824466278
 Ga        -4.8492171987        8.4113466657        3.3129696636