     206
 i =        1, E =     -8480.5412928684
  N         0.0763328812        1.9595706423        2.4944627093
 Ga         0.0660436092       -0.0141457894        2.8276334214
  N         0.0815269944       -0.0256152923        5.0151071089
 Ga         0.0813355375        1.7970694699        5.8016696944
  N         0.0796929326        1.8147762862        7.8016963763
 Ga         0.0777059015       -0.0309199119        8.4442935929
  N         0.0789172064       -0.0306247610       10.4197556842
 Ga         0.0791865590        1.8081397854       11.0714796368
  N         0.0796085262        1.7898292779       13.0664512530
 Ga         0.0795678370       -0.0304889927       13.8782678172
  N         0.0799788494       -0.0315509981       16.0703084731
 Ga         0.0794742487        2.0123799416       16.4922219454
 Ga         0.0577666968        3.6903859891        1.3921194830
  N        -1.4150571758        4.5483715473        2.5349582819
 Ga        -1.6090370291        2.6978360778        3.2781171092
  N        -1.5268260303        2.7541354257        5.2538389781
 Ga        -1.5610447542        4.6193782032        5.8133874784
  N        -1.5404343154        4.6162660564        7.8073637746
 Ga        -1.5196968821        2.7564062964        8.4375436985
  N        -1.5175594290        2.7602421135       10.4328012914
 Ga        -1.5430120060        4.6186105781       11.0695104638
  N        -1.5584927474        4.6298872016       13.0625905407
 Ga        -1.5168855053        2.7620363826       13.6230673237
  N        -1.5498354287        2.7507962952       15.5837435651
 Ga        -1.3525863124        4.5132416982       16.4939177366
  N         0.0795344141        3.6725787602       17.6309407702
  N        -3.1353075847        7.5281460887        2.5396956305
 Ga        -3.1175401395        5.5321985413        2.8532226524
  N        -3.1372868814        5.5382753271        5.0226091918
 Ga        -3.1458917098        7.3620831190        5.8083739536
  N        -3.1381997150        7.3848602356        7.8013329970
 Ga        -3.1381084990        5.5392580573        8.4501304496
  N        -3.1369886517        5.5404251927       10.4231379444
 Ga        -3.1381655170        7.3811709946       11.0702721808
  N        -3.1361405095        7.3625748477       13.0624715297
 Ga        -3.1273389691        5.5460685326       13.8611667810
  N        -3.1262718656        5.5476727176       16.0691413863
 Ga        -3.1347608163        7.6045926290       16.4970816286
 Ga        -3.1358410434        9.2500553522        1.5055945101
  N        -4.6347907294       10.1195471992        2.5121070885
 Ga        -4.8579098649        8.2712677239        3.2914664288
  N        -4.7466273977        8.3260225683        5.2525041344
 Ga        -4.7743815414       10.1996100304        5.7986079229
  N        -4.7554411485       10.1883028495        7.7967337343
 Ga        -4.7382359290        8.3328343438        8.4363849213
  N        -4.7345276634        8.3325750660       10.4310006665
 Ga        -4.7609800843       10.1915215774       11.0718422555
  N        -4.7763603390       10.2010332483       13.0660471355
 Ga        -4.7331469982        8.3323746878       13.6236626371
  N        -4.7608793338        8.3089974362       15.5822736287
 Ga        -4.5782478259       10.0863708518       16.4956351382
  N        -3.1451486822        9.2589723412       17.6425723341
  N         3.2881832085        1.8295250262        2.6148390931
 Ga         3.2867410593        0.0914493979        3.2905682068
  N         3.2945951714       -0.0312563945        5.2523838760
 Ga         3.2876452082        1.8283420161        5.8722094110
  N         3.2949587936        1.8258132071        7.8495889313
 Ga         3.2924796807       -0.0406906707        8.4390472709
  N         3.2946763514       -0.0423230639       10.4330686613
 Ga         3.2952117466        1.8266422786       11.0276901965
  N         3.2977606425        1.8282394793       13.0015888783
 Ga         3.2961027713       -0.0437377257       13.6239623825
  N         3.3018406909       -0.0068078489       15.5827366922
 Ga         3.2939994049        1.8263626959       15.8638079245
  N         1.5735725793        4.5513392633        2.5327929994
 Ga         1.7627781046        2.7107899112        3.2636265388
  N         1.6855090262        2.7544122461        5.2463326156
 Ga         1.7223742939        4.6181998831        5.8130940338
  N         1.6984631626        4.6153620534        7.8083263401
 Ga         1.6770410114        2.7573187552        8.4409722534
  N         1.6766653962        2.7601169898       10.4349860738
 Ga         1.7023195389        4.6193258353       11.0694388640
  N         1.7180855288        4.6301122936       13.0627136954
 Ga         1.6758256827        2.7624153433       13.6237863477
  N         1.7092907720        2.7507672401       15.5844383520
 Ga         1.5121944722        4.5132331225       16.4942419694
  N         0.0823656801        7.3853669895        2.7093096659
 Ga         0.0860612013        5.5857981884        3.3292980788
  N         0.0800098419        5.5325373818        5.2774894940
 Ga         0.0869179196        7.3949442332        5.8751625510
  N         0.0803563048        7.3973884135        7.8474005284
 Ga         0.0795656137        5.5270888991        8.4421546201
  N         0.0793168970        5.5269944743       10.4343626442
 Ga         0.0802551590        7.3971377111       11.0279237191
  N         0.0798509366        7.3971243111       12.9982482934
 Ga         0.0798290074        5.5284574833       13.6229499936
  N         0.0798843227        5.5591928943       15.5820750643
 Ga         0.0803144642        7.3974621560       15.8601574158
  N        -1.6408209184       10.1117355398        2.5372757625
 Ga        -1.4594150422        8.2821873503        3.3349774632
  N        -1.5316619417        8.3255004756        5.2727595891
 Ga        -1.5045609157       10.2049637635        5.8097087440
  N        -1.5195833832       10.1883764556        7.8026509961
 Ga        -1.5391810703        8.3309212333        8.4421414838
  N        -1.5401800372        8.3319460659       10.4336181755
 Ga        -1.5150008856       10.1913491765       11.0701195299
  N        -1.4974449936       10.2000200119       13.0623921058
 Ga        -1.5386332242        8.3320052837       13.6231657630
  N        -1.5107870510        8.3154157497       15.5808581722
 Ga        -1.7066895521       10.0777373043       16.4973711572
  N         6.5102599590        1.9448327527        2.5388667547
 Ga         6.5254655781       -0.0436790615        2.8533525750
  N         6.5085367188       -0.0287365970        5.0218834945
 Ga         6.5096846842        1.7989731626        5.8046002077
  N         6.5109777606        1.8151551840        7.8017961227
 Ga         6.5133736474       -0.0304494967        8.4473895755
  N         6.5120973601       -0.0305652224       10.4215009380
 Ga         6.5124402308        1.8090551016       11.0680940612
  N         6.5120550200        1.7881351069       13.0684549472
 Ga         6.5125131486       -0.0408123188       13.8622078046
  N         6.5117021399       -0.0428571700       16.0689354737
 Ga         6.5121170978        1.9585499595       16.4341252235
 Ga         6.5130622229        3.6795202773        1.5381761041
  N         5.0073798447        4.5487145528        2.5311553863
 Ga         4.7932722279        2.6968834234        3.2982239134
  N         4.9004301760        2.7544377394        5.2590125504
 Ga         4.8769401667        4.6268690538        5.8046310949
  N         4.8946935246        4.6167767954        7.8022451494
 Ga         4.9117608519        2.7596437745        8.4390773687
  N         4.9148189207        2.7614561240       10.4351954688
 Ga         4.8885963275        4.6215353610       11.0682142304
  N         4.8707250696        4.6313854247       13.0686940822
 Ga         4.9148681780        2.7614947739       13.6141307701
  N         4.8968062747        2.7522552766       15.5920007701
 Ga         5.0193413770        4.5465853296       16.4343444230
  N         6.5123534110        3.6828095856       17.5562327209
  N         3.2944532781        7.5203258288        2.5154830635
  N         3.2956354204        5.5361858967        5.0268472976
 Ga         3.3022460659        7.3650986998        5.7970413722
  N         3.2955577531        7.3862656804        7.7962638328
 Ga         3.2967923931        5.5415834066        8.4473080023
  N         3.2957864447        5.5410343419       10.4218582283
 Ga         3.2977014236        7.3815941912       11.0690699642
  N         3.2956575701        7.3627005724       13.0618682748
 Ga         3.2869201736        5.5465580726       13.8612925814
  N         3.2859400475        5.5473804035       16.0698236120
 Ga         3.2943189214        7.6041107580       16.4974428289
 Ga         3.3154332981        9.2634663559        1.3485508923
  N         1.7932292190       10.1170048570        2.5143374081
 Ga         1.6487976289        8.2968729840        3.2922882407
  N         1.6907054021        8.3252661527        5.2502984468
 Ga         1.6648950707       10.1994954891        5.7979346467
  N         1.6774045230       10.1870886491        7.7963979518
 Ga         1.6996231198        8.3318845435        8.4407625647
  N         1.6996571274        8.3325451093       10.4330036324
 Ga         1.6752051229       10.1917643572       11.0691331517
  N         1.6572888549       10.1999749025       13.0617270173
 Ga         1.6983985272        8.3320501465       13.6229364020
  N         1.6711816097        8.3157181230       15.5807733253
 Ga         1.8657682573       10.0779417195       16.4973327946
  N         3.3047836848        9.2593406073       17.6412647517
  N         9.7335714029        1.8240705486        2.6231527934
 Ga         9.7309986789        0.0635848561        3.2604635710
  N         9.7264425597       -0.0335797234        5.2404063795
 Ga         9.7326700243        1.8196376233        5.8665270771
  N         9.7275867731        1.8247705350        7.8464860001
 Ga         9.7304241525       -0.0423618632        8.4322106850
  N         9.7287353148       -0.0428090707       10.4291075964
 Ga         9.7285680633        1.8258632247       11.0246783773
  N         9.7260645576        1.8279306049       12.9994986211
 Ga         9.7279256167       -0.0436614795       13.6235486012
  N         9.7222569745       -0.0072044436       15.5826476887
 Ga         9.7302992835        1.8260680715       15.8640560116
  N         8.0150116893        4.5491368254        2.5376004462
 Ga         8.2289196659        2.6895875863        3.3011154137
  N         8.1198422198        2.7538568779        5.2611570949
 Ga         8.1422975435        4.6260451284        5.8027463199
  N         8.1292414586        4.6176466665        7.8001852665
 Ga         8.1120742975        2.7591826161        8.4358352475
  N         8.1089465161        2.7615773389       10.4330322210
 Ga         8.1345721729        4.6204367986       11.0686002692
  N         8.1530303319        4.6311444339       13.0687888605
 Ga         8.1095078135        2.7611556313       13.6136349272
  N         8.1274674858        2.7521131262       15.5917469642
 Ga         8.0048255202        4.5466367407       16.4342468019
  N         6.5065174820        7.3986291147        2.6096747758
 Ga         6.5052614035        5.6630833189        3.2961807445
  N         6.5102003954        5.5422504122        5.2570659004
 Ga         6.5040885930        7.4017963953        5.8692260278
  N         6.5107125577        7.3975952729        7.8458080382
 Ga         6.5117162031        5.5308102450        8.4368898267
  N         6.5120554447        5.5279898760       10.4333170983
 Ga         6.5112138390        7.3984780569       11.0251923718
  N         6.5116241429        7.3952525270       12.9993154846
 Ga         6.5118777925        5.5289113596       13.6138480648
  N         6.5119786877        5.5489540893       15.5912415277
 Ga         6.5119022595        7.3998891866       15.8640589824
  N         4.8014780114       10.1247863763        2.5043396998
 Ga         4.9833376259        8.2794522276        3.2577877435
  N         4.9027433992        8.3255592246        5.2378014326
 Ga         4.9288159758       10.1961884186        5.7855323388
  N         4.9142933354       10.1882314899        7.7901543760
 Ga         4.8941918731        8.3340474153        8.4325491437
  N         4.8934518826        8.3327989988       10.4289484296
 Ga         4.9186298701       10.1911170469       11.0705348523
  N         4.9355698622       10.2010281181       13.0652594000
 Ga         4.8921267534        8.3327282125       13.6239498213
  N         4.9201101302        8.3092849403       15.5828733588
 Ga         4.7382548817       10.0868808593       16.4959198829
 Ga         3.2733112470        5.5475300282        2.8488678589
  O         0.0098422922        7.3779208988        0.1881580130
  H         0.1224094054        7.3461467607        1.2313797562
  C         1.1774729658        6.7443944248       -0.3166923594
  H         2.1395494919        7.2274381998       -0.0465579533
  H         1.2936388797        5.6759559405       -0.0275519642
  H         1.1072375907        6.7526725037       -1.4142622461
     206
 i =        2, E =     -8480.5447328127
  N         0.0767876142        1.9506465809        2.5000440595
 Ga         0.0696447241       -0.0258693910        2.8293499920
  N         0.0809025641       -0.0270380155        5.0142133442
 Ga         0.0810193798        1.7964981931        5.8016342784
  N         0.0797416656        1.8151737523        7.8008564336
 Ga         0.0777290312       -0.0312084163        8.4447382309
  N         0.0789559364       -0.0305353434       10.4200375044
 Ga         0.0791919924        1.8077958569       11.0724662028
  N         0.0796174102        1.7898689349       13.0673165299
 Ga         0.0797485721       -0.0309439165       13.8776311249
  N         0.0800747519       -0.0315048929       16.0703778421
 Ga         0.0796037229        2.0117354483       16.4903993793
 Ga         0.0691658157        3.6979393266        1.4188924200
  N        -1.4209789484        4.5516777339        2.5359023283
 Ga        -1.6143529708        2.6967264954        3.2769788471
  N        -1.5265669529        2.7538724180        5.2499878476
 Ga        -1.5589290241        4.6197037813        5.8137222869
  N        -1.5411521718        4.6153363070        7.8074136883
 Ga        -1.5197447517        2.7566973869        8.4393836353
  N        -1.5175163591        2.7600155140       10.4340664641
 Ga        -1.5424909914        4.6191753280       11.0694255564
  N        -1.5585111227        4.6297064612       13.0629638577
 Ga        -1.5169137402        2.7619857169       13.6229546635
  N        -1.5502554431        2.7505450617       15.5839438650
 Ga        -1.3529360673        4.5135250374       16.4920690297
  N         0.0795484676        3.6723411057       17.6300483657
  N        -3.1357436475        7.5269372142        2.5433377547
 Ga        -3.1257280270        5.5398036589        2.8538727740
  N        -3.1359872303        5.5389260521        5.0231800527
 Ga        -3.1441894978        7.3653892583        5.8087990825
  N        -3.1393283923        7.3842687290        7.8026623074
 Ga        -3.1382395592        5.5395819491        8.4512319252
  N        -3.1372084130        5.5402105381       10.4242787340
 Ga        -3.1374996008        7.3817397904       11.0693721780
  N        -3.1362722925        7.3627562486       13.0619497482
 Ga        -3.1278542494        5.5462616993       13.8604123561
  N        -3.1258676263        5.5478332191       16.0692447992
 Ga        -3.1349102524        7.6056607427       16.4978690761
 Ga        -3.1237608384        9.2457335933        1.5141857712
  N        -4.6333060459       10.1187739559        2.5099630115
 Ga        -4.8546351781        8.2709597345        3.2909034530
  N        -4.7481449998        8.3256331158        5.2524321470
 Ga        -4.7733024049       10.1986289723        5.7995646583
  N        -4.7552912898       10.1883324965        7.7976552713
 Ga        -4.7381445557        8.3323609875        8.4370549348
  N        -4.7347469377        8.3327043663       10.4316145110
 Ga        -4.7609069758       10.1914414305       11.0719280086
  N        -4.7761981910       10.2009503059       13.0658999711
 Ga        -4.7333940573        8.3322671869       13.6232848987
  N        -4.7609871705        8.3091417361       15.5817191111
 Ga        -4.5771022502       10.0856699976       16.4964930606
  N        -3.1445997171        9.2588550714       17.6444820704
  N         3.2894716412        1.8278933866        2.6137433268
 Ga         3.2888909971        0.0890389485        3.2911636102
  N         3.2937291092       -0.0295720765        5.2531483467
 Ga         3.2884254787        1.8280551725        5.8727185099
  N         3.2941661684        1.8263370410        7.8496375391
 Ga         3.2931708244       -0.0405995959        8.4393119894
  N         3.2943958422       -0.0421209150       10.4334381179
 Ga         3.2953995701        1.8264252281       11.0282442293
  N         3.2977312133        1.8285697903       13.0020115411
 Ga         3.2960345894       -0.0435153156       13.6237623369
  N         3.3015590319       -0.0067310620       15.5822600172
 Ga         3.2945340088        1.8260663298       15.8635199411
  N         1.5796460664        4.5533079576        2.5408662727
 Ga         1.7693341150        2.7076620072        3.2666478423
  N         1.6849819276        2.7539345974        5.2454728405
 Ga         1.7197933861        4.6189939485        5.8122970278
  N         1.6993673111        4.6145789286        7.8074669702
 Ga         1.6772384089        2.7579243394        8.4426451242
  N         1.6765801355        2.7598693511       10.4362094212
 Ga         1.7018437377        4.6197922348       11.0693507375
  N         1.7180432422        4.6299334378       13.0630680376
 Ga         1.6758739372        2.7623728517       13.6236167424
  N         1.7098417107        2.7506251972       15.5845672859
 Ga         1.5125657209        4.5134200264       16.4923987961
  N         0.0933494895        7.3854666899        2.7326813076
 Ga         0.0849866183        5.6094282061        3.3259921516
  N         0.0794002733        5.5280927499        5.2781313112
 Ga         0.0864293787        7.3957620096        5.8671182824
  N         0.0805625584        7.3966762356        7.8440863373
 Ga         0.0798335602        5.5287813071        8.4389484757
  N         0.0793798863        5.5274040284       10.4325159869
 Ga         0.0802405500        7.3973724987       11.0272081897
  N         0.0799369158        7.3968844527       12.9979530747
 Ga         0.0798057356        5.5285082752       13.6225769802
  N         0.0800222201        5.5596402148       15.5820629823
 Ga         0.0801255412        7.3980580540       15.8598279370
  N        -1.6401091406       10.1147618767        2.5431295742
 Ga        -1.4411734515        8.2734217814        3.3286798739
  N        -1.5344213473        8.3267849147        5.2734018751
 Ga        -1.5054497879       10.2024076846        5.8088320981
  N        -1.5195323495       10.1898523026        7.8030429373
 Ga        -1.5375778483        8.3302993957        8.4374663086
  N        -1.5396604947        8.3316403072       10.4309006591
 Ga        -1.5149889293       10.1906171702       11.0691727908
  N        -1.4978400315       10.1999067353       13.0619421471
 Ga        -1.5385481410        8.3318647151       13.6229338700
  N        -1.5109105554        8.3154241339       15.5805638690
 Ga        -1.7074264738       10.0775021944       16.4980028135
  N         6.5104860773        1.9455068440        2.5381998953
 Ga         6.5230268477       -0.0454349008        2.8482512652
  N         6.5098412147       -0.0309761925        5.0203103265
 Ga         6.5098717847        1.7969915153        5.8033655073
  N         6.5109793295        1.8150301389        7.8010466203
 Ga         6.5132053362       -0.0305902304        8.4481117847
  N         6.5121456633       -0.0302303111       10.4222426344
 Ga         6.5123559099        1.8090811819       11.0683799337
  N         6.5121311072        1.7887193006       13.0687245842
 Ga         6.5122509020       -0.0407145744       13.8616136045
  N         6.5117409465       -0.0432835936       16.0688659524
 Ga         6.5118892987        1.9578496563       16.4336686256
 Ga         6.5123817957        3.6789009646        1.5367197075
  N         5.0084853601        4.5480687495        2.5306027214
 Ga         4.7939132291        2.6960307784        3.2982967651
  N         4.9005816327        2.7543970732        5.2586745031
 Ga         4.8765512941        4.6270193694        5.8042306988
  N         4.8944613602        4.6168491967        7.8020023351
 Ga         4.9117913171        2.7596113683        8.4389518183
  N         4.9146718670        2.7614470777       10.4352149528
 Ga         4.8888204168        4.6213816135       11.0685029114
  N         4.8711699566        4.6311975844       13.0687307807
 Ga         4.9148374350        2.7615755929       13.6141562520
  N         4.8968511965        2.7527227484       15.5919964903
 Ga         5.0194773303        4.5465970206       16.4340872772
  N         6.5127125246        3.6821284111       17.5556303736
  N         3.2960701675        7.5205428774        2.5236540578
  N         3.2946303145        5.5375546674        5.0270583093
 Ga         3.3016186268        7.3675388638        5.7990136590
  N         3.2970166583        7.3854542786        7.7978445397
 Ga         3.2967881168        5.5416554753        8.4484822111
  N         3.2960502828        5.5408656374       10.4230011618
 Ga         3.2970202342        7.3821178136       11.0684331917
  N         3.2958312718        7.3628702567       13.0616621544
 Ga         3.2874172925        5.5465255928       13.8603197776
  N         3.2856399160        5.5474688224       16.0699884844
 Ga         3.2944050495        7.6044651645       16.4973540678
 Ga         3.2998437267        9.2525825957        1.3779515670
  N         1.7944342786       10.1176092913        2.5171659501
 Ga         1.6355924967        8.2907524060        3.2989126128
  N         1.6954258392        8.3283496027        5.2596928341
 Ga         1.6661552146       10.1987674133        5.7999811315
  N         1.6776934089       10.1887613363        7.7979603998
 Ga         1.6982972595        8.3310942625        8.4361569239
  N         1.6992308883        8.3321952402       10.4302264657
 Ga         1.6750937131       10.1909481455       11.0684168416
  N         1.6576385668       10.1999941600       13.0616297318
 Ga         1.6983206741        8.3319407518       13.6226650593
  N         1.6712843698        8.3155699809       15.5806900780
 Ga         1.8657537322       10.0779287737       16.4971190671
  N         3.3045549865        9.2593921668       17.6413373343
  N         9.7321153943        1.8233820946        2.6193074984
 Ga         9.7296129379        0.0645028191        3.2619283924
  N         9.7276161728       -0.0323932137        5.2397959455
 Ga         9.7322518577        1.8197350157        5.8668482588
  N         9.7283348311        1.8249387627        7.8460914300
 Ga         9.7299580120       -0.0423063182        8.4333001154
  N         9.7289893232       -0.0425762389       10.4298587317
 Ga         9.7285313548        1.8256788605       11.0256134157
  N         9.7260143336        1.8281494138       13.0002816794
 Ga         9.7281044933       -0.0435272782       13.6234776620
  N         9.7223678137       -0.0070626079       15.5826145944
 Ga         9.7297783429        1.8259906806       15.8639623228
  N         8.0135816109        4.5483231908        2.5362670616
 Ga         8.2279954637        2.6896176053        3.3005041541
  N         8.1202508249        2.7536065085        5.2601850192
 Ga         8.1427869278        4.6261700488        5.8025539341
  N         8.1292633443        4.6175460697        7.8001869742
 Ga         8.1119253059        2.7590242913        8.4358434152
  N         8.1091964877        2.7614240182       10.4331879640
 Ga         8.1343332857        4.6203881026       11.0687925465
  N         8.1526908534        4.6309671143       13.0687479020
 Ga         8.1094923105        2.7613760378       13.6138929528
  N         8.1272360201        2.7523624964       15.5920596055
 Ga         8.0049073602        4.5469696302       16.4338329741
  N         6.5070350669        7.3994149423        2.6102485125
 Ga         6.5056454961        5.6632454794        3.2958887900
  N         6.5101931928        5.5423051802        5.2565808588
 Ga         6.5046912039        7.4016907142        5.8706928291
  N         6.5103725369        7.3977203949        7.8468410310
 Ga         6.5115893260        5.5308371037        8.4371883604
  N         6.5119739345        5.5281045902       10.4336237073
 Ga         6.5113145057        7.3985907023       11.0253379974
  N         6.5114984263        7.3949596152       12.9992388763
 Ga         6.5119492688        5.5289240944       13.6137332385
  N         6.5117443234        5.5487714453       15.5910866305
 Ga         6.5120911889        7.3999113871       15.8632842264
  N         4.8000434207       10.1234728995        2.5000807105
 Ga         4.9846163320        8.2776882144        3.2617203195
  N         4.9040578598        8.3259243002        5.2392983769
 Ga         4.9280430185       10.1957799743        5.7880209342
  N         4.9139323468       10.1881719874        7.7913698316
 Ga         4.8939736266        8.3336063251        8.4337928026
  N         4.8936467485        8.3328966437       10.4298409563
 Ga         4.9187160251       10.1910947220       11.0707851072
  N         4.9355073786       10.2009674891       13.0653552518
 Ga         4.8923513879        8.3326962403       13.6236564564
  N         4.9201754290        8.3091641988       15.5827081477
 Ga         4.7380673749       10.0866382849       16.4957773131
 Ga         3.2821407564        5.5514688879        2.8508356314
  O         0.0360378431        7.3636014806        0.1616461702
  H         0.0798255889        7.3651006430        1.2221457787
  C         1.1773363253        6.7414675700       -0.3662405751
  H         2.1282866566        7.2278156946       -0.0371578614
  H         1.2818638083        5.6858880488       -0.0094020318
  H         1.1093386656        6.7570104331       -1.4593597988
     206
 i =        3, E =     -8480.5458312335
  N         0.0783653595        1.9517104857        2.5027179888
 Ga         0.0702327020       -0.0272659345        2.8285955618
  N         0.0811263404       -0.0290151571        5.0128221690
 Ga         0.0805451642        1.7959782439        5.7995937476
  N         0.0797755350        1.8153915869        7.7992595460
 Ga         0.0778969034       -0.0311943037        8.4447083627
  N         0.0790145751       -0.0306360808       10.4200591935
 Ga         0.0792610566        1.8077020000       11.0730603655
  N         0.0796286212        1.7896103454       13.0677687345
 Ga         0.0798574445       -0.0312162516       13.8778408129
  N         0.0799673718       -0.0309831202       16.0699925688
 Ga         0.0796494549        2.0120609963       16.4900781722
 Ga         0.0751237933        3.7003352155        1.4298688804
  N        -1.4215118533        4.5539772265        2.5311046938
 Ga        -1.6163011516        2.6970853292        3.2772581235
  N        -1.5277198824        2.7529684536        5.2491261020
 Ga        -1.5579694626        4.6194234062        5.8117572155
  N        -1.5410364564        4.6154921957        7.8059462137
 Ga        -1.5197074565        2.7571728920        8.4397004780
  N        -1.5175499923        2.7601308225       10.4342931047
 Ga        -1.5418948744        4.6198879115       11.0691383517
  N        -1.5583454025        4.6298392995       13.0627579394
 Ga        -1.5169625118        2.7620767119       13.6227536362
  N        -1.5507514273        2.7502623365       15.5835097052
 Ga        -1.3524154150        4.5132615396       16.4916157381
  N         0.0795311506        3.6721967499       17.6313623475
  N        -3.1336996352        7.5217655920        2.5397213488
 Ga        -3.1301123912        5.5375025195        2.8559738940
  N        -3.1361354803        5.5402659161        5.0237993331
 Ga        -3.1435631563        7.3663861809        5.8096711945
  N        -3.1390811967        7.3847101787        7.8031785246
 Ga        -3.1381834747        5.5398692166        8.4509639117
  N        -3.1371426187        5.5404182251       10.4240957195
 Ga        -3.1365584819        7.3822747423       11.0686801743
  N        -3.1361234706        7.3629158493       13.0612812993
 Ga        -3.1277119729        5.5466288214       13.8600134137
  N        -3.1252362455        5.5477917858       16.0687935128
 Ga        -3.1345412732        7.6056165971       16.4985132406
 Ga        -3.1214517208        9.2443531242        1.5158066373
  N        -4.6335781822       10.1185386983        2.5110553865
 Ga        -4.8515471557        8.2708007637        3.2908773542
  N        -4.7480608624        8.3259070933        5.2529034099
 Ga        -4.7734253105       10.1986218198        5.8008295884
  N        -4.7546767713       10.1879203759        7.7984545271
 Ga        -4.7377240568        8.3318483506        8.4377996991
  N        -4.7345964180        8.3326021489       10.4319681312
 Ga        -4.7605990163       10.1913672891       11.0719693184