 DBCSR| Multiplication driver                                               BLAS
 DBCSR| Multrec recursion limit                                              512
 DBCSR| Multiplication stack size                                           1000
 DBCSR| Maximum elements for images                                    UNLIMITED
 DBCSR| Multiplicative factor virtual images                                   1
 DBCSR| Multiplication size stacks                                             3
 DBCSR| Number of 3D layers                                               SINGLE
 DBCSR| Use MPI memory allocation                                              T
 DBCSR| Use RMA algorithm                                                      F
 DBCSR| Use Communication thread                                               T
 DBCSR| Communication thread load                                             87


  **** **** ******  **  PROGRAM STARTED AT               2019-05-27 07:02:12.471
 ***** ** ***  *** **   PROGRAM STARTED ON        blg4814.int.ets1.calculquebec.
 **    ****   ******    PROGRAM STARTED BY                                   rzk
 ***** **    ** ** **   PROGRAM PROCESS ID                                 66360
  **** **  *******  **  PROGRAM STARTED IN /lustre03/project/6004141/rzk/GaN-car
                                           bene/334-native/05-2Methanol/01-Shift
                                           -GaUp

 CP2K| version string:                    CP2K version 7.0 (Development Version)
 CP2K| source code revision number:                                    svn:18619
 CP2K| cp2kflags: libint fftw3 libxc parallel mpi3 scalapack mkl                
 CP2K| is freely available from                            https://www.cp2k.org/
 CP2K| Program compiled at                          Sun Apr  7 00:48:11 EDT 2019
 CP2K| Program compiled on                      beluga2.int.ets1.calculquebec.ca
 CP2K| Program compiled for                    Beluga-Linux-x86-64-intel-openmpi
 CP2K| Data directory path    /home/rzk/projects/def-rzk/group/cp2k/cp2k-mcgill/
 CP2K| Input file name                                                 start.inp
 
 GLOBAL| Force Environment number                                              1
 GLOBAL| Basis set file name                                        BASIS_MOLOPT
 GLOBAL| Potential file name                                      GTH_POTENTIALS
 GLOBAL| MM Potential file name                                     MM_POTENTIAL
 GLOBAL| Coordinate file name                                      __STD_INPUT__
 GLOBAL| Method name                                                        CP2K
 GLOBAL| Project name                                                       TEST
 GLOBAL| Preferred FFT library                                             FFTW3
 GLOBAL| Preferred diagonalization lib.                                       SL
 GLOBAL| Run type                                                        GEO_OPT
 GLOBAL| All-to-all communication in single precision                          F
 GLOBAL| FFTs using library dependent lengths                                  F
 GLOBAL| Global print level                                               MEDIUM
 GLOBAL| MPI I/O enabled                                                       T
 GLOBAL| Total number of message passing processes                            80
 GLOBAL| Number of threads for this process                                    1
 GLOBAL| This output is from process                                           0
 GLOBAL| CPU model name :  Intel(R) Xeon(R) Gold 6148 CPU @ 2.40GHz

 MEMORY| system memory details [Kb]
 MEMORY|                        rank 0           min           max       average
 MEMORY| MemTotal            196614300     196614300     196614300     196614300
 MEMORY| MemFree             176996548     176881140     177074740     176989049
 MEMORY| Buffers                     0             0            76            38
 MEMORY| Cached                1984060       1983832       7672520       4828275
 MEMORY| Slab                  2216804       1855036       2216804       2035920
 MEMORY| SReclaimable           879632        186048        879632        532840
 MEMORY| MemLikelyFree       179860240     179858628     184933384     182350202


 *** Fundamental physical constants (SI units) ***

 *** Literature: B. J. Mohr and B. N. Taylor,
 ***             CODATA recommended values of the fundamental physical
 ***             constants: 2006, Web Version 5.1
 ***             http://physics.nist.gov/constants

 Speed of light in vacuum [m/s]                             2.99792458000000E+08
 Magnetic constant or permeability of vacuum [N/A**2]       1.25663706143592E-06
 Electric constant or permittivity of vacuum [F/m]          8.85418781762039E-12
 Planck constant (h) [J*s]                                  6.62606896000000E-34
 Planck constant (h-bar) [J*s]                              1.05457162825177E-34
 Elementary charge [C]                                      1.60217648700000E-19
 Electron mass [kg]                                         9.10938215000000E-31
 Electron g factor [ ]                                     -2.00231930436220E+00
 Proton mass [kg]                                           1.67262163700000E-27
 Fine-structure constant                                    7.29735253760000E-03
 Rydberg constant [1/m]                                     1.09737315685270E+07
 Avogadro constant [1/mol]                                  6.02214179000000E+23
 Boltzmann constant [J/K]                                   1.38065040000000E-23
 Atomic mass unit [kg]                                      1.66053878200000E-27
 Bohr radius [m]                                            5.29177208590000E-11

 *** Conversion factors ***

 [u] -> [a.u.]                                              1.82288848426455E+03
 [Angstrom] -> [Bohr] = [a.u.]                              1.88972613288564E+00
 [a.u.] = [Bohr] -> [Angstrom]                              5.29177208590000E-01
 [a.u.] -> [s]                                              2.41888432650478E-17
 [a.u.] -> [fs]                                             2.41888432650478E-02
 [a.u.] -> [J]                                              4.35974393937059E-18
 [a.u.] -> [N]                                              8.23872205491840E-08
 [a.u.] -> [K]                                              3.15774647902944E+05
 [a.u.] -> [kJ/mol]                                         2.62549961709828E+03
 [a.u.] -> [kcal/mol]                                       6.27509468713739E+02
 [a.u.] -> [Pa]                                             2.94210107994716E+13
 [a.u.] -> [bar]                                            2.94210107994716E+08
 [a.u.] -> [atm]                                            2.90362800883016E+08
 [a.u.] -> [eV]                                             2.72113838565563E+01
 [a.u.] -> [Hz]                                             6.57968392072181E+15
 [a.u.] -> [1/cm] (wave numbers)                            2.19474631370540E+05
 [a.u./Bohr**2] -> [1/cm]                                   5.14048714338585E+03
 

 CELL_TOP| Volume [angstrom^3]:                                         2519.385
 CELL_TOP| Vector a [angstrom     9.737     0.000     0.000    |a| =       9.737
 CELL_TOP| Vector b [angstrom    -4.859     8.416     0.000    |b| =       9.718
 CELL_TOP| Vector c [angstrom     0.000     0.000    30.744    |c| =      30.744
 CELL_TOP| Angle (b,c), alpha [degree]:                                   90.000
 CELL_TOP| Angle (a,c), beta  [degree]:                                   90.000
 CELL_TOP| Angle (a,b), gamma [degree]:                                  120.000
 CELL_TOP| Numerically orthorhombic:                                          NO
 
 GENERATE|  Preliminary Number of Bonds generated:                             0
 GENERATE|  Achieved consistency in connectivity generation.

 CELL| Volume [angstrom^3]:                                             2519.385
 CELL| Vector a [angstrom]:       9.737     0.000     0.000    |a| =       9.737
 CELL| Vector b [angstrom]:      -4.859     8.416     0.000    |b| =       9.718
 CELL| Vector c [angstrom]:       0.000     0.000    30.744    |c| =      30.744
 CELL| Angle (b,c), alpha [degree]:                                       90.000
 CELL| Angle (a,c), beta  [degree]:                                       90.000
 CELL| Angle (a,b), gamma [degree]:                                      120.000
 CELL| Numerically orthorhombic:                                              NO

 CELL_REF| Volume [angstrom^3]:                                         2432.344
 CELL_REF| Vector a [angstrom     9.558     0.000     0.000    |a| =       9.558
 CELL_REF| Vector b [angstrom    -4.779     8.277     0.000    |b| =       9.558
 CELL_REF| Vector c [angstrom     0.000     0.000    30.744    |c| =      30.744
 CELL_REF| Angle (b,c), alpha [degree]:                                   90.000
 CELL_REF| Angle (a,c), beta  [degree]:                                   90.000
 CELL_REF| Angle (a,b), gamma [degree]:                                  120.000
 CELL_REF| Numerically orthorhombic:                                          NO

 *******************************************************************************
 *******************************************************************************
 **                                                                           **
 **     #####                         ##              ##                      **
 **    ##   ##            ##          ##              ##                      **
 **   ##     ##                       ##            ######                    **
 **   ##     ##  ##   ##  ##   #####  ##  ##   ####   ##    #####    #####    **
 **   ##     ##  ##   ##  ##  ##      ## ##   ##      ##   ##   ##  ##   ##   **
 **   ##  ## ##  ##   ##  ##  ##      ####     ###    ##   ######   ######    **
 **    ##  ###   ##   ##  ##  ##      ## ##      ##   ##   ##       ##        **
 **     #######   #####   ##   #####  ##  ##  ####    ##    #####   ##        **
 **           ##                                                    ##        **
 **                                                                           **
 **                                                ... make the atoms dance   **
 **                                                                           **
 **            Copyright (C) by CP2K developers group (2000 - 2018)           **
 **                                                                           **
 *******************************************************************************

 DFT| Spin restricted Kohn-Sham (RKS) calculation                            RKS
 DFT| Multiplicity                                                             1
 DFT| Number of spin states                                                    1
 DFT| Charge                                                                   0
 DFT| Self-interaction correction (SIC)                                       NO
 DFT| Cutoffs: density                                              1.000000E-10
 DFT|          gradient                                             1.000000E-10
 DFT|          tau                                                  1.000000E-10
 DFT|          cutoff_smoothing_range                               0.000000E+00
 DFT| XC density smoothing                                                  NONE
 DFT| XC derivatives                                                          PW
 FUNCTIONAL| ROUTINE=NEW
 FUNCTIONAL| PBE:
 FUNCTIONAL| J.P.Perdew, K.Burke, M.Ernzerhof, Phys. Rev. Letter, vol. 77, n 18,
 FUNCTIONAL|  pp. 3865-3868, (1996){spin unpolarized}                           
 vdW POTENTIAL|                                                   Pair Potential
 vdW POTENTIAL|          DFT-D3 (Version 3.1)
 vdW POTENTIAL|          Potential Form: S. Grimme et al, JCP 132: 154104 (2010)
 vdW POTENTIAL|          Zero Damping
 vdW POTENTIAL|          Cutoff Radius [Bohr]:                             18.90
 vdW POTENTIAL|          s6 Scaling Factor:                               1.0000
 vdW POTENTIAL|          sr6 Scaling Factor:                              1.2170
 vdW POTENTIAL|          s8 Scaling Factor:                               0.7220
 vdW POTENTIAL|          Cutoff for CN calculation:                   0.1000E-05

 QS| Method:                                                                 GPW
 QS| Density plane wave grid type                        NON-SPHERICAL FULLSPACE
 QS| Number of grid levels:                                                    5
 QS| Density cutoff [a.u.]:                                                600.0
 QS| Multi grid cutoff [a.u.]: 1) grid level                               600.0
 QS|                           2) grid level                               200.0
 QS|                           3) grid level                                66.7
 QS|                           4) grid level                                22.2
 QS|                           5) grid level                                 7.4
 QS| Grid level progression factor:                                          3.0
 QS| Relative density cutoff [a.u.]:                                        20.0
 QS| Consistent realspace mapping and integration 
 QS| Interaction thresholds: eps_pgf_orb:                                1.0E-07
 QS|                         eps_filter_matrix:                          0.0E+00
 QS|                         eps_core_charge:                            1.0E-16
 QS|                         eps_rho_gspace:                             1.0E-14
 QS|                         eps_rho_rspace:                             1.0E-14
 QS|                         eps_gvg_rspace:                             1.0E-07
 QS|                         eps_ppl:                                    1.0E-02
 QS|                         eps_ppnl:                                   1.0E-09


 ATOMIC KIND INFORMATION

  1. Atomic kind: Ga                                    Number of atoms:      72

     Orbital Basis Set                                    DZVP-MOLOPT-SR-GTH-q13

       Number of orbital shell sets:                                           1
       Number of orbital shells:                                               7
       Number of primitive Cartesian functions:                                6
       Number of Cartesian basis functions:                                   30
       Number of spherical basis functions:                                   25
       Norm type:                                                              2

       Normalised Cartesian orbitals:

                        Set   Shell   Orbital            Exponent    Coefficient

                          1       1    2s                7.066654       0.013136
                                                         3.428369      -0.094392
                                                         1.430064       0.265435
                                                         0.571611       0.056465
                                                         0.232197      -0.192187
                                                         0.076562      -0.044987

                          1       2    3s                7.066654      -0.098564
                                                         3.428369       0.010390
                                                         1.430064       0.351249
                                                         0.571611       0.182615
                                                         0.232197      -0.425358
                                                         0.076562       0.190349

                          1       3    3px               7.066654       0.002364
                                                         3.428369       0.019222
                                                         1.430064       0.250132
                                                         0.571611      -0.058486
                                                         0.232197      -0.159451
                                                         0.076562      -0.020696
                          1       3    3py               7.066654       0.002364
                                                         3.428369       0.019222
                                                         1.430064       0.250132
                                                         0.571611      -0.058486
                                                         0.232197      -0.159451
                                                         0.076562      -0.020696
                          1       3    3pz               7.066654       0.002364
                                                         3.428369       0.019222
                                                         1.430064       0.250132
                                                         0.571611      -0.058486
                                                         0.232197      -0.159451
                                                         0.076562      -0.020696

                          1       4    4px               7.066654       0.492448
                                                         3.428369      -0.614736
                                                         1.430064      -0.191654
                                                         0.571611       0.037801
                                                         0.232197       0.302315
                                                         0.076562      -0.071336
                          1       4    4py               7.066654       0.492448
                                                         3.428369      -0.614736
                                                         1.430064      -0.191654
                                                         0.571611       0.037801
                                                         0.232197       0.302315
                                                         0.076562      -0.071336
                          1       4    4pz               7.066654       0.492448
                                                         3.428369      -0.614736
                                                         1.430064      -0.191654
                                                         0.571611       0.037801
                                                         0.232197       0.302315
                                                         0.076562      -0.071336

                          1       5    4dx2              7.066654     -15.264855
                                                         3.428369      -5.345726
                                                         1.430064      -1.022732
                                                         0.571611      -0.123148
                                                         0.232197      -0.006983
                                                         0.076562      -0.000022
                          1       5    4dxy              7.066654     -26.439504
                                                         3.428369      -9.259069
                                                         1.430064      -1.771423
                                                         0.571611      -0.213299
                                                         0.232197      -0.012094
                                                         0.076562      -0.000037
                          1       5    4dxz              7.066654     -26.439504
                                                         3.428369      -9.259069
                                                         1.430064      -1.771423
                                                         0.571611      -0.213299
                                                         0.232197      -0.012094
                                                         0.076562      -0.000037
                          1       5    4dy2              7.066654     -15.264855
                                                         3.428369      -5.345726
                                                         1.430064      -1.022732
                                                         0.571611      -0.123148
                                                         0.232197      -0.006983
                                                         0.076562      -0.000022
                          1       5    4dyz              7.066654     -26.439504
                                                         3.428369      -9.259069
                                                         1.430064      -1.771423
                                                         0.571611      -0.213299
                                                         0.232197      -0.012094
                                                         0.076562      -0.000037
                          1       5    4dz2              7.066654     -15.264855
                                                         3.428369      -5.345726
                                                         1.430064      -1.022732
                                                         0.571611      -0.123148
                                                         0.232197      -0.006983
                                                         0.076562      -0.000022

                          1       6    5dx2              7.066654      -5.739265
                                                         3.428369      -2.129289
                                                         1.430064      -0.700423
                                                         0.571611       0.161606
                                                         0.232197       0.043513
                                                         0.076562       0.011205
                          1       6    5dxy              7.066654      -9.940698
                                                         3.428369      -3.688037
                                                         1.430064      -1.213168
                                                         0.571611       0.279909
                                                         0.232197       0.075368
                                                         0.076562       0.019407
                          1       6    5dxz              7.066654      -9.940698
                                                         3.428369      -3.688037
                                                         1.430064      -1.213168
                                                         0.571611       0.279909
                                                         0.232197       0.075368
                                                         0.076562       0.019407
                          1       6    5dy2              7.066654      -5.739265
                                                         3.428369      -2.129289
                                                         1.430064      -0.700423
                                                         0.571611       0.161606
                                                         0.232197       0.043513
                                                         0.076562       0.011205
                          1       6    5dyz              7.066654      -9.940698
                                                         3.428369      -3.688037
                                                         1.430064      -1.213168
                                                         0.571611       0.279909
                                                         0.232197       0.075368
                                                         0.076562       0.019407
                          1       6    5dz2              7.066654      -5.739265
                                                         3.428369      -2.129289
                                                         1.430064      -0.700423
                                                         0.571611       0.161606
                                                         0.232197       0.043513
                                                         0.076562       0.011205

                          1       7    5fx3              7.066654       0.705879
                                                         3.428369      -0.273976
                                                         1.430064       0.113667
                                                         0.571611       0.132480
                                                         0.232197       0.012437
                                                         0.076562       0.003241
                          1       7    5fx2y             7.066654       1.578393
                                                         3.428369      -0.612629
                                                         1.430064       0.254167
                                                         0.571611       0.296234
                                                         0.232197       0.027811
                                                         0.076562       0.007246
                          1       7    5fx2z             7.066654       1.578393
                                                         3.428369      -0.612629
                                                         1.430064       0.254167
                                                         0.571611       0.296234
                                                         0.232197       0.027811
                                                         0.076562       0.007246
                          1       7    5fxy2             7.066654       1.578393
                                                         3.428369      -0.612629
                                                         1.430064       0.254167
                                                         0.571611       0.296234
                                                         0.232197       0.027811
                                                         0.076562       0.007246
                          1       7    5fxyz             7.066654       2.733856
                                                         3.428369      -1.061105
                                                         1.430064       0.440230
                                                         0.571611       0.513092
                                                         0.232197       0.048170
                                                         0.076562       0.012551
                          1       7    5fxz2             7.066654       1.578393
                                                         3.428369      -0.612629
                                                         1.430064       0.254167
                                                         0.571611       0.296234
                                                         0.232197       0.027811
                                                         0.076562       0.007246
                          1       7    5fy3              7.066654       0.705879
                                                         3.428369      -0.273976
                                                         1.430064       0.113667
                                                         0.571611       0.132480
                                                         0.232197       0.012437
                                                         0.076562       0.003241
                          1       7    5fy2z             7.066654       1.578393
                                                         3.428369      -0.612629
                                                         1.430064       0.254167
                                                         0.571611       0.296234
                                                         0.232197       0.027811
                                                         0.076562       0.007246
                          1       7    5fyz2             7.066654       1.578393
                                                         3.428369      -0.612629
                                                         1.430064       0.254167
                                                         0.571611       0.296234
                                                         0.232197       0.027811
                                                         0.076562       0.007246
                          1       7    5fz3              7.066654       0.705879
                                                         3.428369      -0.273976
                                                         1.430064       0.113667
                                                         0.571611       0.132480
                                                         0.232197       0.012437
                                                         0.076562       0.003241

     GTH Potential information for                                   GTH-PBE-q13

       Description:                       Goedecker-Teter-Hutter pseudopotential
                                           Goedecker et al., PRB 54, 1703 (1996)
                                          Hartwigsen et al., PRB 58, 3641 (1998)
                                                      Krack, TCA 114, 145 (2005)

       Gaussian exponent of the core charge distribution:               2.082466
       Electronic configuration (s p d ...):                           2   1  10

       Parameters of the local part of the GTH pseudopotential:

                          rloc        C1          C2          C3          C4
                        0.490000

       Parameters of the non-local part of the GTH pseudopotential:

                   l      r(l)      h(i,j,l)

                   0    0.416777   10.475690   -4.921768    0.870706
                                   -4.921768    7.770178   -2.248152
                                    0.870706   -2.248152    1.784415
                   1    0.569627    1.777985    0.195860
                                    0.195860   -0.231744
                   2    0.238126  -16.248680

  2. Atomic kind: N                                     Number of atoms:      72

     Orbital Basis Set                                     DZVP-MOLOPT-SR-GTH-q5

       Number of orbital shell sets:                                           1
       Number of orbital shells:                                               5
       Number of primitive Cartesian functions:                                5
       Number of Cartesian basis functions:                                   14
       Number of spherical basis functions:                                   13
       Norm type:                                                              2

       Normalised Cartesian orbitals:

                        Set   Shell   Orbital            Exponent    Coefficient

                          1       1    2s                7.341988       0.360561
                                                         2.542637       0.139177
                                                         0.888575      -0.289383
                                                         0.333802      -0.182244
                                                         0.112012      -0.019197

                          1       2    3s                7.341988       0.282000
                                                         2.542637       0.177875
                                                         0.888575      -0.278381
                                                         0.333802       0.008577
                                                         0.112012       0.154176

                          1       3    3px               7.341988      -1.188719
                                                         2.542637      -0.973969
                                                         0.888575      -0.501079
                                                         0.333802      -0.144894
                                                         0.112012      -0.013986
                          1       3    3py               7.341988      -1.188719
                                                         2.542637      -0.973969
                                                         0.888575      -0.501079
                                                         0.333802      -0.144894
                                                         0.112012      -0.013986
                          1       3    3pz               7.341988      -1.188719
                                                         2.542637      -0.973969
                                                         0.888575      -0.501079
                                                         0.333802      -0.144894
                                                         0.112012      -0.013986

                          1       4    4px               7.341988      -0.094798
                                                         2.542637       0.050069
                                                         0.888575      -0.114797
                                                         0.333802       0.144793
                                                         0.112012       0.066710
                          1       4    4py               7.341988      -0.094798
                                                         2.542637       0.050069
                                                         0.888575      -0.114797
                                                         0.333802       0.144793
                                                         0.112012       0.066710
                          1       4    4pz               7.341988      -0.094798
                                                         2.542637       0.050069
                                                         0.888575      -0.114797
                                                         0.333802       0.144793
                                                         0.112012       0.066710

                          1       5    4dx2              7.341988       1.354688
                                                         2.542637       0.690378
                                                         0.888575       0.855359
                                                         0.333802       0.091746
                                                         0.112012       0.001253
                          1       5    4dxy              7.341988       2.346389
                                                         2.542637       1.195770
                                                         0.888575       1.481524
                                                         0.333802       0.158910
                                                         0.112012       0.002169
                          1       5    4dxz              7.341988       2.346389
                                                         2.542637       1.195770
                                                         0.888575       1.481524
                                                         0.333802       0.158910
                                                         0.112012       0.002169
                          1       5    4dy2              7.341988       1.354688
                                                         2.542637       0.690378
                                                         0.888575       0.855359
                                                         0.333802       0.091746
                                                         0.112012       0.001253
                          1       5    4dyz              7.341988       2.346389
                                                         2.542637       1.195770
                                                         0.888575       1.481524
                                                         0.333802       0.158910
                                                         0.112012       0.002169
                          1       5    4dz2              7.341988       1.354688
                                                         2.542637       0.690378
                                                         0.888575       0.855359
                                                         0.333802       0.091746
                                                         0.112012       0.001253

     GTH Potential information for                                    GTH-PBE-q5

       Description:                       Goedecker-Teter-Hutter pseudopotential
                                           Goedecker et al., PRB 54, 1703 (1996)
                                          Hartwigsen et al., PRB 58, 3641 (1998)
                                                      Krack, TCA 114, 145 (2005)

       Gaussian exponent of the core charge distribution:               6.208322
       Electronic configuration (s p d ...):                               2   3

       Parameters of the local part of the GTH pseudopotential:

                          rloc        C1          C2          C3          C4
                        0.283791  -12.415226    1.868096

       Parameters of the non-local part of the GTH pseudopotential:

                   l      r(l)      h(i,j,l)

                   0    0.255405   13.630263
                   1    0.245495

  3. Atomic kind: O                                     Number of atoms:       2

     Orbital Basis Set                                     DZVP-MOLOPT-SR-GTH-q6

       Number of orbital shell sets:                                           1
       Number of orbital shells:                                               5
       Number of primitive Cartesian functions:                                5
       Number of Cartesian basis functions:                                   14
       Number of spherical basis functions:                                   13
       Norm type:                                                              2

       Normalised Cartesian orbitals:

                        Set   Shell   Orbital            Exponent    Coefficient

                          1       1    2s               10.389228       0.396646
                                                         3.849621       0.208811
                                                         1.388401      -0.301641
                                                         0.496955      -0.274061
                                                         0.162492      -0.033677

                          1       2    3s               10.389228       0.303673
                                                         3.849621       0.240943
                                                         1.388401      -0.313066
                                                         0.496955      -0.043055
                                                         0.162492       0.213991

                          1       3    3px              10.389228      -1.530415
                                                         3.849621      -1.371928
                                                         1.388401      -0.761951
                                                         0.496955      -0.253695
                                                         0.162492      -0.035541
                          1       3    3py              10.389228      -1.530415
                                                         3.849621      -1.371928
                                                         1.388401      -0.761951
                                                         0.496955      -0.253695
                                                         0.162492      -0.035541
                          1       3    3pz              10.389228      -1.530415
                                                         3.849621      -1.371928
                                                         1.388401      -0.761951
                                                         0.496955      -0.253695
                                                         0.162492      -0.035541

                          1       4    4px              10.389228      -0.565392
                                                         3.849621      -0.038231
                                                         1.388401      -0.382373
                                                         0.496955       0.179070
                                                         0.162492       0.122714
                          1       4    4py              10.389228      -0.565392
                                                         3.849621      -0.038231
                                                         1.388401      -0.382373
                                                         0.496955       0.179070
                                                         0.162492       0.122714
                          1       4    4pz              10.389228      -0.565392
                                                         3.849621      -0.038231
                                                         1.388401      -0.382373
                                                         0.496955       0.179070
                                                         0.162492       0.122714

                          1       5    4dx2             10.389228       1.867377
                                                         3.849621       0.670994
                                                         1.388401       1.353441
                                                         0.496955       0.273538
                                                         0.162492       0.006620
                          1       5    4dxy             10.389228       3.234392
                                                         3.849621       1.162195
                                                         1.388401       2.344229
                                                         0.496955       0.473781
                                                         0.162492       0.011466
                          1       5    4dxz             10.389228       3.234392
                                                         3.849621       1.162195
                                                         1.388401       2.344229
                                                         0.496955       0.473781
                                                         0.162492       0.011466
                          1       5    4dy2             10.389228       1.867377
                                                         3.849621       0.670994
                                                         1.388401       1.353441
                                                         0.496955       0.273538
                                                         0.162492       0.006620
                          1       5    4dyz             10.389228       3.234392
                                                         3.849621       1.162195
                                                         1.388401       2.344229
                                                         0.496955       0.473781
                                                         0.162492       0.011466
                          1       5    4dz2             10.389228       1.867377
                                                         3.849621       0.670994
                                                         1.388401       1.353441
                                                         0.496955       0.273538
                                                         0.162492       0.006620

     GTH Potential information for                                    GTH-PBE-q6

       Description:                       Goedecker-Teter-Hutter pseudopotential
                                           Goedecker et al., PRB 54, 1703 (1996)
                                          Hartwigsen et al., PRB 58, 3641 (1998)
                                                      Krack, TCA 114, 145 (2005)

       Gaussian exponent of the core charge distribution:               8.360253
       Electronic configuration (s p d ...):                               2   4

       Parameters of the local part of the GTH pseudopotential:

                          rloc        C1          C2          C3          C4
                        0.244554  -16.667215    2.487311

       Parameters of the non-local part of the GTH pseudopotential:

                   l      r(l)      h(i,j,l)

                   0    0.220956   18.337458
                   1    0.211332

  4. Atomic kind: H                                     Number of atoms:       8

     Orbital Basis Set                                     DZVP-MOLOPT-SR-GTH-q1

       Number of orbital shell sets:                                           1
       Number of orbital shells:                                               3
       Number of primitive Cartesian functions:                                5
       Number of Cartesian basis functions:                                    5
       Number of spherical basis functions:                                    5
       Norm type:                                                              2

       Normalised Cartesian orbitals:

                        Set   Shell   Orbital            Exponent    Coefficient

                          1       1    2s               10.068468      -0.133023
                                                         2.680223      -0.177618
                                                         0.791502      -0.258419
                                                         0.239116      -0.107525
                                                         0.082193      -0.014019

                          1       2    3s               10.068468       0.344673
                                                         2.680223       1.819821
                                                         0.791502      -0.999069
                                                         0.239116       0.017430
                                                         0.082193       0.082660

                          1       3    3px              10.068468       0.155326
                                                         2.680223       0.367157
                                                         0.791502       0.311480
                                                         0.239116       0.080105
                                                         0.082193       0.033440
                          1       3    3py              10.068468       0.155326
                                                         2.680223       0.367157
                                                         0.791502       0.311480
                                                         0.239116       0.080105
                                                         0.082193       0.033440
                          1       3    3pz              10.068468       0.155326
                                                         2.680223       0.367157
                                                         0.791502       0.311480
                                                         0.239116       0.080105
                                                         0.082193       0.033440

     GTH Potential information for                                    GTH-PBE-q1

       Description:                       Goedecker-Teter-Hutter pseudopotential
                                           Goedecker et al., PRB 54, 1703 (1996)
                                          Hartwigsen et al., PRB 58, 3641 (1998)
                                                      Krack, TCA 114, 145 (2005)

       Gaussian exponent of the core charge distribution:              12.500000
       Electronic configuration (s p d ...):                                   1

       Parameters of the local part of the GTH pseudopotential:

                          rloc        C1          C2          C3          C4
                        0.200000   -4.178900    0.724463

  5. Atomic kind: C                                     Number of atoms:       2

     Orbital Basis Set                                     DZVP-MOLOPT-SR-GTH-q4

       Number of orbital shell sets:                                           1
       Number of orbital shells:                                               5
       Number of primitive Cartesian functions:                                5
       Number of Cartesian basis functions:                                   14
       Number of spherical basis functions:                                   13
       Norm type:                                                              2

       Normalised Cartesian orbitals:

                        Set   Shell   Orbital            Exponent    Coefficient

                          1       1    2s                5.605331       0.322515
                                                         2.113016       0.213043
                                                         0.769911      -0.209686
                                                         0.348157      -0.219794
                                                         0.128212      -0.022789

                          1       2    3s                5.605331       0.552234
                                                         2.113016       0.082072
                                                         0.769911       0.007843
                                                         0.348157       0.136893
                                                         0.128212       0.074283

                          1       3    3px               5.605331      -0.703879
                                                         2.113016      -0.642521
                                                         0.769911      -0.374851
                                                         0.348157      -0.139743
                                                         0.128212      -0.027849
                          1       3    3py               5.605331      -0.703879
                                                         2.113016      -0.642521
                                                         0.769911      -0.374851
                                                         0.348157      -0.139743
                                                         0.128212      -0.027849
                          1       3    3pz               5.605331      -0.703879
                                                         2.113016      -0.642521
                                                         0.769911      -0.374851
                                                         0.348157      -0.139743
                                                         0.128212      -0.027849

                          1       4    4px               5.605331      -0.480376
                                                         2.113016      -0.552894
                                                         0.769911      -0.316145
                                                         0.348157       0.210505
                                                         0.128212       0.076095
                          1       4    4py               5.605331      -0.480376
                                                         2.113016      -0.552894
                                                         0.769911      -0.316145
                                                         0.348157       0.210505
                                                         0.128212       0.076095
                          1       4    4pz               5.605331      -0.480376
                                                         2.113016      -0.552894
                                                         0.769911      -0.316145
                                                         0.348157       0.210505
                                                         0.128212       0.076095

                          1       5    4dx2              5.605331       0.640026
                                                         2.113016       0.274300
                                                         0.769911       0.446711
                                                         0.348157       0.028674
                                                         0.128212       0.029790
                          1       5    4dxy              5.605331       1.108557
                                                         2.113016       0.475102
                                                         0.769911       0.773726
                                                         0.348157       0.049666
                                                         0.128212       0.051599
                          1       5    4dxz              5.605331       1.108557
                                                         2.113016       0.475102
                                                         0.769911       0.773726
                                                         0.348157       0.049666
                                                         0.128212       0.051599
                          1       5    4dy2              5.605331       0.640026
                                                         2.113016       0.274300
                                                         0.769911       0.446711
                                                         0.348157       0.028674
                                                         0.128212       0.029790
                          1       5    4dyz              5.605331       1.108557
                                                         2.113016       0.475102
                                                         0.769911       0.773726
                                                         0.348157       0.049666
                                                         0.128212       0.051599
                          1       5    4dz2              5.605331       0.640026
                                                         2.113016       0.274300
                                                         0.769911       0.446711
                                                         0.348157       0.028674
                                                         0.128212       0.029790

     GTH Potential information for                                    GTH-PBE-q4

       Description:                       Goedecker-Teter-Hutter pseudopotential
                                           Goedecker et al., PRB 54, 1703 (1996)
                                          Hartwigsen et al., PRB 58, 3641 (1998)
                                                      Krack, TCA 114, 145 (2005)

       Gaussian exponent of the core charge distribution:               4.364419
       Electronic configuration (s p d ...):                               2   2

       Parameters of the local part of the GTH pseudopotential:

                          rloc        C1          C2          C3          C4
                        0.338471   -8.803674    1.339211

       Parameters of the non-local part of the GTH pseudopotential:

                   l      r(l)      h(i,j,l)

                   0    0.302576    9.622487
                   1    0.291507


 MOLECULE KIND INFORMATION


 All atoms are their own molecule, skipping detailed information


 TOTAL NUMBERS AND MAXIMUM NUMBERS

  Total number of            - Atomic kinds:                                   5
                             - Atoms:                                        156
                             - Shell sets:                                   156
                             - Shells:                                       908
                             - Primitive Cartesian functions:                852
                             - Cartesian basis functions:                   3264
                             - Spherical basis functions:                   2828

  Maximum angular momentum of- Orbital basis functions:                        3
                             - Local part of the GTH pseudopotential:          2
                             - Non-local part of the GTH pseudopotential:      4


 MODULE QUICKSTEP:  ATOMIC COORDINATES IN angstrom

  Atom  Kind  Element       X           Y           Z          Z(eff)       Mass

       1     1 Ga  31    0.034616   -0.001436   -0.523958     13.00      69.7230
       2     2 N    7    0.038337    1.871785    0.603715      5.00      14.0067
       3     1 Ga  31    0.037347    1.841241    2.636672     13.00      69.7230
       4     2 N    7    0.034608   -0.002471    3.267087      5.00      14.0067
       5     1 Ga  31    0.034874   -0.001353    5.258144     13.00      69.7230
       6     2 N    7    0.038094    1.873260    5.845514      5.00      14.0067
       7     1 Ga  31    0.037655    1.871772    7.844854     13.00      69.7230
       8     2 N    7    0.034106   -0.001730    8.444752      5.00      14.0067
       9     1 Ga  31    0.034334   -0.000645   10.441284     13.00      69.7230
      10     2 N    7    0.039999    1.869235   11.051245      5.00      14.0067
      11     1 Ga  31    0.044480    1.870833   13.048111     13.00      69.7230
      12     2 N    7    0.040714   -0.006182   13.645576      5.00      14.0067
      13     1 Ga  31    0.031139    0.001458   15.648063     13.00      69.7230
      14     2 N    7    0.024128    1.878029   16.188203      5.00      14.0067
      15     1 Ga  31    0.006074    1.886415   18.217429     13.00      69.7230
      16     2 N    7    0.009018    0.023914   18.678090      5.00      14.0067
      17     1 Ga  31   -1.585046    2.803460    0.320849     13.00      69.7230
      18     2 N    7   -1.585494    4.673051    0.604712      5.00      14.0067
      19     1 Ga  31   -1.557600    4.688605    2.634950     13.00      69.7230
      20     2 N    7   -1.584869    2.803071    3.226754      5.00      14.0067
      21     1 Ga  31   -1.584881    2.803719    5.238295     13.00      69.7230
      22     2 N    7   -1.584368    4.674165    5.844728      5.00      14.0067
      23     1 Ga  31   -1.584348    4.673962    7.843482     13.00      69.7230
      24     2 N    7   -1.583866    2.804290    8.449715      5.00      14.0067
      25     1 Ga  31   -1.581780    2.806132   10.446391     13.00      69.7230
      26     2 N    7   -1.581004    4.679610   11.048813      5.00      14.0067
      27     1 Ga  31   -1.581159    4.685721   13.045005     13.00      69.7230
      28     2 N    7   -1.586761    2.807746   13.621775      5.00      14.0067
      29     1 Ga  31   -1.592134    2.811263   15.610901     13.00      69.7230
      30     2 N    7   -1.594590    4.672416   16.228090      5.00      14.0067
      31     1 Ga  31   -1.603425    4.692209   18.272302     13.00      69.7230
      32     2 N    7   -1.579947    2.829276   18.743738      5.00      14.0067
      33     1 Ga  31   -3.204744    5.608083    0.321049     13.00      69.7230
      34     2 N    7   -3.198820    7.479760    0.603307      5.00      14.0067
      35     1 Ga  31   -3.226034    7.494082    2.636397     13.00      69.7230
      36     2 N    7   -3.204519    5.608672    3.226248      5.00      14.0067
      37     1 Ga  31   -3.204424    5.609617    5.237688     13.00      69.7230
      38     2 N    7   -3.199040    7.479757    5.845440      5.00      14.0067
      39     1 Ga  31   -3.200492    7.479338    7.844882     13.00      69.7230
      40     2 N    7   -3.205339    5.608245    8.447486      5.00      14.0067
      41     1 Ga  31   -3.205401    5.609056   10.442957     13.00      69.7230
      42     2 N    7   -3.201769    7.481553   11.041221      5.00      14.0067
      43     1 Ga  31   -3.201025    7.480121   13.032429     13.00      69.7230
      44     2 N    7   -3.206076    5.615634   13.649265      5.00      14.0067
      45     1 Ga  31   -3.211935    5.619069   15.652384     13.00      69.7230
      46     2 N    7   -3.199784    7.486319   16.292308      5.00      14.0067
      47     1 Ga  31   -3.219543    7.500903   18.395776     13.00      69.7230
      48     2 N    7   -3.227730    5.621165   18.695480      5.00      14.0067
      49     1 Ga  31    3.282259   -0.001793    0.321060     13.00      69.7230
      50     2 N    7    3.279323    1.867361    0.604760      5.00      14.0067
      51     1 Ga  31    3.307783    1.883169    2.634790     13.00      69.7230
      52     2 N    7    3.280365   -0.002437    3.226431      5.00      14.0067
      53     1 Ga  31    3.280838   -0.001161    5.237879     13.00      69.7230
      54     2 N    7    3.280779    1.868985    5.845238      5.00      14.0067
      55     1 Ga  31    3.281194    1.869207    7.844363     13.00      69.7230
      56     2 N    7    3.280444   -0.001438    8.447966      5.00      14.0067
      57     1 Ga  31    3.281699    0.000147   10.443791     13.00      69.7230
      58     2 N    7    3.283746    1.871156   11.050294      5.00      14.0067
      59     1 Ga  31    3.280603    1.872009   13.047850     13.00      69.7230
      60     2 N    7    3.274612   -0.002960   13.643989      5.00      14.0067
      61     1 Ga  31    3.273142    0.002747   15.645013     13.00      69.7230
      62     2 N    7    3.279835    1.881883   16.200940      5.00      14.0067
      63     1 Ga  31    3.285640    1.877583   18.235357     13.00      69.7230
      64     2 N    7    3.263113    0.024774   18.710137      5.00      14.0067
      65     1 Ga  31    1.661657    2.804115    0.321178     13.00      69.7230
      66     2 N    7    1.667720    4.673779    0.604738      5.00      14.0067
      67     1 Ga  31    1.638968    4.689119    2.634763     13.00      69.7230
      68     2 N    7    1.660590    2.803267    3.226126      5.00      14.0067
      69     1 Ga  31    1.661053    2.804253    5.237457     13.00      69.7230
      70     2 N    7    1.666421    4.674167    5.845407      5.00      14.0067
      71     1 Ga  31    1.664464    4.674042    7.844356     13.00      69.7230
      72     2 N    7    1.660557    2.803913    8.450315      5.00      14.0067
      73     1 Ga  31    1.661376    2.805913   10.447099     13.00      69.7230
      74     2 N    7    1.660841    4.678322   11.051282      5.00      14.0067
      75     1 Ga  31    1.656986    4.680685   13.049530     13.00      69.7230
      76     2 N    7    1.663643    2.813092   13.658001      5.00      14.0067
      77     1 Ga  31    1.658602    2.831430   15.670150     13.00      69.7230
      78     2 N    7    1.656271    4.679768   16.300582      5.00      14.0067
      79     1 Ga  31    1.637322    4.690739   18.802336     13.00      69.7230
      80     2 N    7    1.648964    2.797993   18.638403      5.00      14.0067
      81     1 Ga  31    0.042400    5.609859   -0.548649     13.00      69.7230
      82     2 N    7    0.044820    7.483752    0.605371      5.00      14.0067
      83     1 Ga  31    0.044193    7.451893    2.635384     13.00      69.7230
      84     2 N    7    0.040920    5.608423    3.267159      5.00      14.0067
      85     1 Ga  31    0.041467    5.609622    5.257122     13.00      69.7230
      86     2 N    7    0.044143    7.484117    5.844845      5.00      14.0067
      87     1 Ga  31    0.043188    7.482164    7.843572     13.00      69.7230
      88     2 N    7    0.040283    5.608937    8.443509      5.00      14.0067
      89     1 Ga  31    0.040901    5.610731   10.439407     13.00      69.7230
      90     2 N    7    0.042350    7.479161   11.049936      5.00      14.0067
      91     1 Ga  31    0.038527    7.476083   13.047037     13.00      69.7230
      92     2 N    7    0.038760    5.610111   13.678910      5.00      14.0067
      93     1 Ga  31    0.046948    5.609676   15.700771     13.00      69.7230
      94     2 N    7    0.042504    7.499579   16.224533      5.00      14.0067
      95     1 Ga  31    0.022973    7.512311   18.269159     13.00      69.7230
      96     2 N    7   -0.012621    5.655336   18.763834      5.00      14.0067
      97     1 Ga  31    6.525226   -0.001130    0.320489     13.00      69.7230
      98     2 N    7    6.533292    1.867834    0.604988      5.00      14.0067
      99     1 Ga  31    6.504570    1.882996    2.634865     13.00      69.7230
     100     2 N    7    6.526089   -0.002234    3.227148      5.00      14.0067
     101     1 Ga  31    6.526430   -0.000926    5.238595     13.00      69.7230
     102     2 N    7    6.531684    1.868752    5.847200      5.00      14.0067
     103     1 Ga  31    6.530370    1.868887    7.847364     13.00      69.7230
     104     2 N    7    6.525556   -0.003269    8.449238      5.00      14.0067
     105     1 Ga  31    6.526055   -0.004269   10.445759     13.00      69.7230
     106     2 N    7    6.528709    1.870783   11.035789      5.00      14.0067
     107     1 Ga  31    6.526849    1.871553   13.025523     13.00      69.7230
     108     2 N    7    6.524028   -0.000256   13.625788      5.00      14.0067
     109     1 Ga  31    6.520363    0.008127   15.618166     13.00      69.7230
     110     2 N    7    6.543608    1.868187   16.218299      5.00      14.0067
     111     1 Ga  31    6.551390    1.875963   18.284122     13.00      69.7230
     112     2 N    7    6.508884    0.005459   18.721987      5.00      14.0067
     113     1 Ga  31    4.907301    2.803493   -0.549163     13.00      69.7230
     114     2 N    7    4.909739    4.678633    0.604983      5.00      14.0067
     115     1 Ga  31    4.909018    4.646363    2.634953     13.00      69.7230
     116     2 N    7    4.906454    2.802841    3.267249      5.00      14.0067
     117     1 Ga  31    4.906925    2.803741    5.257548     13.00      69.7230
     118     2 N    7    4.909034    4.678657    5.844656      5.00      14.0067
     119     1 Ga  31    4.908353    4.676950    7.843561     13.00      69.7230
     120     2 N    7    4.905231    2.804398    8.444855      5.00      14.0067
     121     1 Ga  31    4.904738    2.806272   10.441736     13.00      69.7230
     122     2 N    7    4.908552    4.676872   11.051561      5.00      14.0067
     123     1 Ga  31    4.905827    4.680273   13.049806     13.00      69.7230
     124     2 N    7    4.910185    2.804246   13.639662      5.00      14.0067
     125     1 Ga  31    4.915536    2.805723   15.637986     13.00      69.7230
     126     2 N    7    4.897384    4.683829   16.210779      5.00      14.0067
     127     1 Ga  31    4.900461    4.683192   18.802336     13.00      69.7230
     128     2 N    7    4.909651    2.808873   18.639005      5.00      14.0067
     129     1 Ga  31    3.287621    5.607870    0.320873     13.00      69.7230
     130     2 N    7    3.286645    7.479199    0.603686      5.00      14.0067
     131     1 Ga  31    3.313045    7.494111    2.636669     13.00      69.7230
     132     2 N    7    3.286392    5.608695    3.226307      5.00      14.0067
     133     1 Ga  31    3.286632    5.609698    5.237530     13.00      69.7230
     134     2 N    7    3.287051    7.479490    5.845543      5.00      14.0067
     135     1 Ga  31    3.287373    7.478961    7.844691     13.00      69.7230
     136     2 N    7    3.286005    5.608454    8.449634      5.00      14.0067
     137     1 Ga  31    3.285788    5.609417   10.446100     13.00      69.7230
     138     2 N    7    3.291461    7.480326   11.050821      5.00      14.0067
     139     1 Ga  31    3.290934    7.475093   13.047338     13.00      69.7230
     140     2 N    7    3.279329    5.604913   13.664348      5.00      14.0067
     141     1 Ga  31    3.262604    5.604950   15.678861     13.00      69.7230
     142     2 N    7    3.278840    7.494596   16.210368      5.00      14.0067
     143     1 Ga  31    3.266354    7.507070   18.253914     13.00      69.7230
     144     2 N    7    3.281298    5.629953   18.670294      5.00      14.0067
     145     3 O    8    1.244866    4.749104   21.059031      6.00      15.9994
     146     4 H    1    0.494310    5.344091   20.828633      1.00       1.0079
     147     5 C    6    0.695203    3.548601   21.666197      4.00      12.0107
     148     4 H    1   -0.190431    3.192796   21.117257      1.00       1.0079
     149     4 H    1    1.475710    2.782056   21.616470      1.00       1.0079
     150     4 H    1    0.433259    3.752607   22.712761      1.00       1.0079
     151     3 O    8    4.490530    4.749104   21.059031      6.00      15.9994
     152     4 H    1    3.739980    5.344091   20.828633      1.00       1.0079
     153     5 C    6    3.940870    3.548601   21.666197      4.00      12.0107
     154     4 H    1    3.055240    3.192796   21.117257      1.00       1.0079
     155     4 H    1    4.721380    2.782056   21.616470      1.00       1.0079
     156     4 H    1    3.678930    3.752607   22.712761      1.00       1.0079




 SCF PARAMETERS         Density guess:                                    ATOMIC
                        --------------------------------------------------------
                        max_scf:                                             100
                        max_scf_history:                                       0
                        max_diis:                                              4
                        --------------------------------------------------------
                        eps_scf:                                        5.00E-06
                        eps_scf_history:                                0.00E+00
                        eps_diis:                                       1.00E-01
                        eps_eigval:                                     1.00E-05
                        --------------------------------------------------------
                        level_shift [a.u.]:                                 0.00
                        --------------------------------------------------------
                        Outer loop SCF in use 
                        No variables optimised in outer loop
                        eps_scf                                         5.00E-06
                        max_scf                                                4
                        No outer loop optimization
                        step_size                                       5.00E-01

 PW_GRID| Information for grid number                                          1
 PW_GRID| Grid distributed over                                    80 processors
 PW_GRID| Real space group dimensions                                    80    1
 PW_GRID| the grid is blocked:                                                NO
 PW_GRID| Cutoff [a.u.]                                                    600.0
 PW_GRID| spherical cutoff:                                                   NO
 PW_GRID|   Bounds   1           -100      99                Points:         200
 PW_GRID|   Bounds   2           -100      99                Points:         200
 PW_GRID|   Bounds   3           -324     323                Points:         648
 PW_GRID| Volume element (a.u.^3)  0.6333E-03     Volume (a.u.^3)     16414.2734
 PW_GRID| Grid span                                                    FULLSPACE
 PW_GRID|   Distribution                         Average         Max         Min
 PW_GRID|   G-Vectors                           324000.0      324000      324000
 PW_GRID|   G-Rays                                1620.0        1620        1620
 PW_GRID|   Real Space Points                   324000.0      388800      259200

 PW_GRID| Information for grid number                                          2
 PW_GRID| Grid distributed over                                    80 processors
 PW_GRID| Real space group dimensions                                    80    1
 PW_GRID| the grid is blocked:                                                NO
 PW_GRID| Cutoff [a.u.]                                                    200.0
 PW_GRID| spherical cutoff:                                                   NO
 PW_GRID|   Bounds   1            -60      59                Points:         120
 PW_GRID|   Bounds   2            -60      59                Points:         120
 PW_GRID|   Bounds   3           -187     187                Points:         375
 PW_GRID| Volume element (a.u.^3)  0.3040E-02     Volume (a.u.^3)     16414.2734
 PW_GRID| Grid span                                                    FULLSPACE
 PW_GRID|   Distribution                         Average         Max         Min
 PW_GRID|   G-Vectors                            67500.0       68520       66240
 PW_GRID|   G-Rays                                 562.5         571         552
 PW_GRID|   Real Space Points                    67500.0       90000       45000

 PW_GRID| Information for grid number                                          3
 PW_GRID| Grid distributed over                                    80 processors
 PW_GRID| Real space group dimensions                                     8   10
 PW_GRID| the grid is blocked:                                                NO
 PW_GRID| Cutoff [a.u.]                                                     66.7
 PW_GRID| spherical cutoff:                                                   NO
 PW_GRID|   Bounds   1            -36      35                Points:          72
 PW_GRID|   Bounds   2            -36      35                Points:          72
 PW_GRID|   Bounds   3           -108     107                Points:         216
 PW_GRID| Volume element (a.u.^3)  0.1466E-01     Volume (a.u.^3)     16414.2734
 PW_GRID| Grid span                                                    FULLSPACE
 PW_GRID|   Distribution                         Average         Max         Min
 PW_GRID|   G-Vectors                            13996.8       14976       12816
 PW_GRID|   G-Rays                                 194.4         208         178
 PW_GRID|   Real Space Points                    13996.8       15552       13608

 PW_GRID| Information for grid number                                          4
 PW_GRID| Grid distributed over                                    80 processors
 PW_GRID| Real space group dimensions                                     8   10
 PW_GRID| the grid is blocked:                                                NO
 PW_GRID| Cutoff [a.u.]                                                     22.2
 PW_GRID| spherical cutoff:                                                   NO
 PW_GRID|   Bounds   1            -20      19                Points:          40
 PW_GRID|   Bounds   2            -20      19                Points:          40
 PW_GRID|   Bounds   3            -62      62                Points:         125
 PW_GRID| Volume element (a.u.^3)  0.8207E-01     Volume (a.u.^3)     16414.2734
 PW_GRID| Grid span                                                    FULLSPACE
 PW_GRID|   Distribution                         Average         Max         Min
 PW_GRID|   G-Vectors                             2500.0        2960        2040
 PW_GRID|   G-Rays                                  62.5          74          51
 PW_GRID|   Real Space Points                     2500.0        2500        2500

 PW_GRID| Information for grid number                                          5
 PW_GRID| Grid distributed over                                    80 processors
 PW_GRID| Real space group dimensions                                     8   10
 PW_GRID| the grid is blocked:                                                NO
 PW_GRID| Cutoff [a.u.]                                                      7.4
 PW_GRID| spherical cutoff:                                                   NO
 PW_GRID|   Bounds   1            -12      11                Points:          24
 PW_GRID|   Bounds   2            -12      11                Points:          24
 PW_GRID|   Bounds   3            -36      35                Points:          72
 PW_GRID| Volume element (a.u.^3)  0.3958         Volume (a.u.^3)     16414.2734
 PW_GRID| Grid span                                                    FULLSPACE
 PW_GRID|   Distribution                         Average         Max         Min
 PW_GRID|   G-Vectors                              518.4         648         240
 PW_GRID|   G-Rays                                  21.6          27          10
 PW_GRID|   Real Space Points                      518.4         648         432

 POISSON| Solver                                                        PERIODIC
 POISSON| Periodicity                                                        XYZ

 RS_GRID| Information for grid number                                          1
 RS_GRID|   Bounds   1           -100      99                Points:         200
 RS_GRID|   Bounds   2           -100      99                Points:         200
 RS_GRID|   Bounds   3           -324     323                Points:         648
 RS_GRID| Real space distribution over                                 80 groups
 RS_GRID| Real space distribution along direction                              3
 RS_GRID| Border size                                                         73
 RS_GRID|   Distribution                         Average         Max         Min
 RS_GRID|   Planes                                 154.1         155         154

 RS_GRID| Information for grid number                                          2
 RS_GRID|   Bounds   1            -60      59                Points:         120
 RS_GRID|   Bounds   2            -60      59                Points:         120
 RS_GRID|   Bounds   3           -187     187                Points:         375
 RS_GRID| Real space distribution over                                 80 groups
 RS_GRID| Real space distribution along direction                              3
 RS_GRID| Border size                                                         45
 RS_GRID|   Distribution                         Average         Max         Min
 RS_GRID|   Planes                                  94.7          95          94

 RS_GRID| Information for grid number                                          3
 RS_GRID|   Bounds   1            -36      35                Points:          72
 RS_GRID|   Bounds   2            -36      35                Points:          72
 RS_GRID|   Bounds   3           -108     107                Points:         216
 RS_GRID| Real space fully replicated
 RS_GRID| Group size                                                           1

 RS_GRID| Information for grid number                                          4
 RS_GRID|   Bounds   1            -20      19                Points:          40
[...]
 flops   703 x    54 x   120          45372182400     100.0%      0.0%      0.0%
 flops   706 x    54 x   120          45565804800     100.0%      0.0%      0.0%
 flops   708 x    54 x   120          45694886400     100.0%      0.0%      0.0%
 flops   711 x    54 x   120          45888508800     100.0%      0.0%      0.0%
 flops   182 x    54 x   139          47621967120     100.0%      0.0%      0.0%
 flops   182 x    54 x   140          47964571200     100.0%      0.0%      0.0%
 flops    25 x     5 x    32          52574976000     100.0%      0.0%      0.0%
 flops    13 x     5 x    32          69284883200     100.0%      0.0%      0.0%
 flops   160 x    54 x   120          72285696000     100.0%      0.0%      0.0%
 flops   703 x    54 x   139          78834166920     100.0%      0.0%      0.0%
 flops   706 x    54 x   139          79170585840     100.0%      0.0%      0.0%
 flops   708 x    54 x   139          79394865120     100.0%      0.0%      0.0%
 flops   703 x    54 x   140          79401319200     100.0%      0.0%      0.0%
 flops   711 x    54 x   139          79731284040     100.0%      0.0%      0.0%
 flops   706 x    54 x   140          79740158400     100.0%      0.0%      0.0%
 flops   708 x    54 x   140          79966051200     100.0%      0.0%      0.0%
 flops   711 x    54 x   140          80304890400     100.0%      0.0%      0.0%
 flops    13 x    13 x    54         102885720912     100.0%      0.0%      0.0%
 flops   182 x    54 x    32         103243375872     100.0%      0.0%      0.0%
 flops   182 x    32 x    54         103243375872     100.0%      0.0%      0.0%
 flops   160 x    54 x   139         125596396800     100.0%      0.0%      0.0%
 flops   160 x    54 x   140         126499968000     100.0%      0.0%      0.0%
 flops    13 x    22 x    13         147495201568     100.0%      0.0%      0.0%
 flops     5 x    25 x    32         157116472000     100.0%      0.0%      0.0%
 flops     5 x    32 x    13         178277715200     100.0%      0.0%      0.0%
 flops    13 x    32 x     5         178277715200     100.0%      0.0%      0.0%
 flops    13 x    25 x    54         211583221200     100.0%      0.0%      0.0%
 flops    25 x    13 x    54         226358636400     100.0%      0.0%      0.0%
 flops   160 x    32 x    54         272290222080     100.0%      0.0%      0.0%
 flops   160 x    54 x    32         272290222080     100.0%      0.0%      0.0%
 flops   182 x    32 x   120         308597452800     100.0%      0.0%      0.0%
 flops    13 x    22 x    25         319051275400     100.0%      0.0%      0.0%
 flops    25 x    22 x    13         319051275400     100.0%      0.0%      0.0%
 flops   703 x    32 x    54         367863320448     100.0%      0.0%      0.0%
 flops   703 x    54 x    32         367863320448     100.0%      0.0%      0.0%
 flops   706 x    32 x    54         369433149696     100.0%      0.0%      0.0%
 flops   706 x    54 x    32         369433149696     100.0%      0.0%      0.0%
 flops   708 x    32 x    54         370479702528     100.0%      0.0%      0.0%
 flops   708 x    54 x    32         370479702528     100.0%      0.0%      0.0%
 flops   711 x    54 x    32         372049531776     100.0%      0.0%      0.0%
 flops   711 x    32 x    54         372049531776     100.0%      0.0%      0.0%
 flops     5 x    32 x    25         394734560000     100.0%      0.0%      0.0%
 flops    25 x    32 x     5         394734560000     100.0%      0.0%      0.0%
 flops    25 x    25 x    54         426090780000     100.0%      0.0%      0.0%
 flops   703 x    32 x   120         510857164800     100.0%      0.0%      0.0%
 flops   706 x    32 x   120         513037209600     100.0%      0.0%      0.0%
 flops   708 x    32 x   120         514490572800     100.0%      0.0%      0.0%
 flops   711 x    32 x   120         516670617600     100.0%      0.0%      0.0%
 flops   182 x    32 x   139         536188074240     100.0%      0.0%      0.0%
 flops   182 x    32 x   140         540045542400     100.0%      0.0%      0.0%
 flops    25 x    22 x    25         612295200000     100.0%      0.0%      0.0%
 flops   160 x    32 x   120         813883392000     100.0%      0.0%      0.0%
 flops   703 x    32 x   139         887614323840     100.0%      0.0%      0.0%
 flops   706 x    32 x   139         891402151680     100.0%      0.0%      0.0%
 flops   708 x    32 x   139         893927370240     100.0%      0.0%      0.0%
 flops   703 x    32 x   140         894000038400     100.0%      0.0%      0.0%
 flops   711 x    32 x   139         897715198080     100.0%      0.0%      0.0%
 flops   706 x    32 x   140         897815116800     100.0%      0.0%      0.0%
 flops   708 x    32 x   140         900358502400     100.0%      0.0%      0.0%
 flops   711 x    32 x   140         904173580800     100.0%      0.0%      0.0%
 flops    13 x    13 x    32        1158417005824     100.0%      0.0%      0.0%
 flops   182 x    32 x    32        1162443935744     100.0%      0.0%      0.0%
 flops   160 x    32 x   139        1414122393600     100.0%      0.0%      0.0%
 flops   160 x    32 x   140        1424295936000     100.0%      0.0%      0.0%
 flops    13 x    25 x    32        2382270342400     100.0%      0.0%      0.0%
 flops    25 x    13 x    32        2548630572800     100.0%      0.0%      0.0%
 flops   160 x    32 x    32        3065786204160     100.0%      0.0%      0.0%
 flops   703 x    32 x    32        4141868496896     100.0%      0.0%      0.0%
 flops   706 x    32 x    32        4159543611392     100.0%      0.0%      0.0%
 flops   708 x    32 x    32        4171327021056     100.0%      0.0%      0.0%
 flops   711 x    32 x    32        4189002135552     100.0%      0.0%      0.0%
 flops    13 x    32 x    13        4290769500160     100.0%      0.0%      0.0%
 flops    25 x    25 x    32        4797466560000     100.0%      0.0%      0.0%
 flops    13 x    32 x    25        9281491648000     100.0%      0.0%      0.0%
 flops    25 x    32 x    13        9281491648000     100.0%      0.0%      0.0%
 flops    25 x    32 x    25       17812224000000     100.0%      0.0%      0.0%
 flops inhomo. stacks              31137766329600     100.0%      0.0%      0.0%
 flops total                       126.885365E+12     100.0%      0.0%      0.0%
 flops max/rank                      2.557441E+12     100.0%      0.0%      0.0%
 matmuls inhomo. stacks                   7968000     100.0%      0.0%      0.0%
 matmuls total                         2602545112     100.0%      0.0%      0.0%
 number of processed stacks             115052188     100.0%      0.0%      0.0%
 average stack size                                    22.6       0.0       0.0
 marketing flops                   136.856365E+12
 -------------------------------------------------------------------------------
 # multiplications                          31773
 max memory usage/rank             922.587136E+06
 # max total images/rank                        5
 # max 3D layers                                1
 # MPI messages exchanged               289769760
 MPI messages size (bytes):
  total size                        18.576522E+12
  min size                           0.000000E+00
  max size                           1.023840E+06
  average size                      64.107871E+03
 MPI breakdown and total messages size (bytes):
             size <=      128             1372560                        0
       128 < size <=     8192           113944596             933434130432
      8192 < size <=    32768            35042099             885499169664
     32768 < size <=   131072           104374505            4130731386976
    131072 < size <=  4194304            35036000           12621589686304
   4194304 < size <= 16777216                   0                        0
  16777216 < size                               0                        0
 -------------------------------------------------------------------------------

 *** WARNING in dbcsr/mm/dbcsr_mm.F:268 :: Using a non-square number of ***
 *** MPI ranks might lead to poor performance.                          ***
 *** Used ranks: 80                                                     ***
 *** Suggested: 81 169                                                  ***

 -------------------------------------------------------------------------------
 
 MEMORY| Estimated peak process memory [MiB]                                 885

 -------------------------------------------------------------------------------
 ----                             MULTIGRID INFO                            ----
 -------------------------------------------------------------------------------
 count for grid        1:        1219386          cutoff [a.u.]          600.00
 count for grid        2:        7704867          cutoff [a.u.]          200.00
 count for grid        3:        6955332          cutoff [a.u.]           66.67
 count for grid        4:       10365175          cutoff [a.u.]           22.22
 count for grid        5:        9840415          cutoff [a.u.]            7.41
 total gridlevel count  :       36085175

 -------------------------------------------------------------------------------
 -                                                                             -
 -                         MESSAGE PASSING PERFORMANCE                         -
 -                                                                             -
 -------------------------------------------------------------------------------

 ROUTINE             CALLS      AVE VOLUME [Bytes]
 MP_Group             1868
 MP_Bcast            29142                  33067.
 MP_Allreduce       244950                    159.
 MP_Sync               807
 MP_Alltoall        161421                2934251.
 MP_SendRecv         24964                   5265.
 MP_ISendRecv       844431                  49867.
 MP_Wait           7284252
 MP_comm_split         802
 MP_ISend          8260270                  61605.
 MP_IRecv          8260270                  61345.
 MP_Recv              1482                  89856.
 MP_Memory         3560976
 -------------------------------------------------------------------------------


 -------------------------------------------------------------------------------
 -                                                                             -
 -                           R E F E R E N C E S                               -
 -                                                                             -
 -------------------------------------------------------------------------------
 
 CP2K version 7.0 (Development Version), the CP2K developers group (2018).
 CP2K is freely available from https://www.cp2k.org/ .

 Schuett, Ole; Messmer, Peter; Hutter, Juerg; VandeVondele, Joost. 
 Electronic Structure Calculations on Graphics Processing Units, John Wiley & Sons, Ltd, 173-190 (2016). 
 GPU-Accelerated Sparse Matrix-Matrix Multiplication for Linear Scaling Density Functional Theory.
 http://dx.doi.org/10.1002/9781118670712.ch8


 Borstnik, U; VandeVondele, J; Weber, V; Hutter, J. 
 PARALLEL COMPUTING, 40 (5-6), 47-58 (2014). 
 Sparse matrix multiplication: The distributed block-compressed sparse
 row library.
 http://dx.doi.org/10.1016/j.parco.2014.03.012


 Hutter, J; Iannuzzi, M; Schiffmann, F; VandeVondele, J. 
 WILEY INTERDISCIPLINARY REVIEWS-COMPUTATIONAL MOLECULAR SCIENCE, 4 (1), 15-25 (2014). 
 CP2K: atomistic simulations of condensed matter systems.
 http://dx.doi.org/10.1002/wcms.1159


 Grimme, S; Ehrlich, S; Goerigk, L. 
 JOURNAL OF COMPUTATIONAL CHEMISTRY, 32, 1456 (2011). 
 Effect of the damping function in dispersion corrected density functional theory.
 http://dx.doi.org/10.1002/jcc.21759


 Grimme, S; Antony, J; Ehrlich, S; Krieg, H. 
 JOURNAL OF CHEMICAL PHYSICS, 132 (15), 154104 (2010). 
 A consistent and accurate ab initio parametrization of density
 functional dispersion correction (DFT-D) for the 94 elements H-Pu.
 http://dx.doi.org/10.1063/1.3382344


 VandeVondele, J; Hutter, J. 
 JOURNAL OF CHEMICAL PHYSICS, 127 (11), 114105 (2007). 
 Gaussian basis sets for accurate calculations on molecular systems in
 gas and condensed phases.
 http://dx.doi.org/10.1063/1.2770708


 Krack, M. 
 THEORETICAL CHEMISTRY ACCOUNTS, 114 (1-3), 145-152 (2005). 
 Pseudopotentials for H to Kr optimized for gradient-corrected
 exchange-correlation functionals.
 http://dx.doi.org/10.1007/s00214-005-0655-y


 VandeVondele, J; Krack, M; Mohamed, F; Parrinello, M; Chassaing, T;
 Hutter, J. COMPUTER PHYSICS COMMUNICATIONS, 167 (2), 103-128 (2005). 
 QUICKSTEP: Fast and accurate density functional calculations using a
 mixed Gaussian and plane waves approach.
 http://dx.doi.org/10.1016/j.cpc.2004.12.014


 Frigo, M; Johnson, SG. 
 PROCEEDINGS OF THE IEEE, 93 (2), 216-231 (2005). 
 The design and implementation of FFTW3.
 http://dx.doi.org/10.1109/JPROC.2004.840301


 Kolafa, J. 
 JOURNAL OF COMPUTATIONAL CHEMISTRY, 25 (3), 335-342 (2004). 
 Time-reversible always stable predictor-corrector method for molecular dynamics of polarizable molecules.
 http://dx.doi.org/10.1002/jcc.10385


 VandeVondele, J; Hutter, J. 
 JOURNAL OF CHEMICAL PHYSICS, 118 (10), 4365-4369 (2003). 
 An efficient orbital transformation method for electronic structure
 calculations.
 http://dx.doi.org/10.1063/1.1543154


 Hartwigsen, C; Goedecker, S; Hutter, J. 
 PHYSICAL REVIEW B, 58 (7), 3641-3662 (1998). 
 Relativistic separable dual-space Gaussian pseudopotentials from H to Rn.
 http://dx.doi.org/10.1103/PhysRevB.58.3641


 Lippert, G; Hutter, J; Parrinello, M. 
 MOLECULAR PHYSICS, 92 (3), 477-487 (1997). 
 A hybrid Gaussian and plane wave density functional scheme.
 http://dx.doi.org/10.1080/002689797170220


 Perdew, JP; Burke, K; Ernzerhof, M. 
 PHYSICAL REVIEW LETTERS, 77 (18), 3865-3868 (1996). 
 Generalized gradient approximation made simple.
 http://dx.doi.org/10.1103/PhysRevLett.77.3865


 Goedecker, S; Teter, M; Hutter, J. 
 PHYSICAL REVIEW B, 54 (3), 1703-1710 (1996). 
 Separable dual-space Gaussian pseudopotentials.
 http://dx.doi.org/10.1103/PhysRevB.54.1703


 -------------------------------------------------------------------------------
 -                                                                             -
 -                                T I M I N G                                  -
 -                                                                             -
 -------------------------------------------------------------------------------
 SUBROUTINE                       CALLS  ASD         SELF TIME        TOTAL TIME
                                MAXIMUM       AVERAGE  MAXIMUM  AVERAGE  MAXIMUM
 CP2K                                 1  1.0     0.36     0.42 19992.35 19992.39
 cp_geo_opt                           1  2.0     0.08     0.10 19990.00 19990.01
 geoopt_bfgs                          1  3.0     0.23     0.53 19989.91 19989.97
 cp_eval_at                          80  4.0     0.06     0.10 19936.68 19936.76
 qs_forces                           79  5.0     0.06     0.12 19818.31 19818.33
 qs_energies                         80  6.0     0.10     0.37 18586.23 18586.44
 scf_env_do_scf                      80  7.0     0.03     0.10 17756.08 17756.27
 scf_env_do_scf_inner_loop         2243  8.0     0.24     0.50 16570.25 16570.38
 qs_rho_update_rho                 2323  9.0     0.03     0.05  8167.04  8173.88
 calculate_rho_elec                2323 10.0  3710.26  5527.16  8167.01  8173.83
 rebuild_ks_matrix                 2322  9.9     0.02     0.04  7988.33  7995.29
 qs_ks_build_kohn_sham_matrix      2322 10.9     0.98     3.33  7988.32  7995.27
 qs_ks_update_qs_env               2327  9.0     0.04     0.07  6959.47  6966.05
 rs_pw_transfer                   18134 12.9     0.36     0.62  4286.57  5862.80
 density_rs2pw                     2323 11.0     0.28     0.46  4151.51  5684.20
 mp_waitany                      758752 14.9  3338.85  5216.25  3338.85  5216.25
 sum_up_and_integrate              1240 11.8     6.60    11.07  5010.72  5014.03
 integrate_v_rspace                1240 12.8  2470.93  3656.97  5004.11  5010.60
 rs_pw_transfer_RS2PW_600          2483 12.9   213.19   372.46  2866.56  4446.19
 pw_transfer                      38028 13.3     6.27    10.09  3231.68  3300.93
 fft_wrap_pw1pw2                  33384 14.4     0.62     0.99  3206.57  3284.92
 fft3d_ps                         33384 16.4   515.65   787.20  2856.09  3067.22
 fft_wrap_pw1pw2_600              19132 15.7   146.97   226.39  2873.41  2924.68
 mp_alltoall_z22v                 33384 18.4  2104.14  2585.31  2104.14  2585.31
 mp_alltoall_d11v                 26231 15.1  1543.03  2560.71  1543.03  2560.71
 rs_distribute_matrix              3642 12.0     3.63    11.72  1513.09  2527.37
 qs_vxc_create                     2322 11.9     0.07     0.11  2368.68  2386.97
 dbcsr_multiply_generic           31773 13.8     3.31     7.72  2331.19  2353.49
 qs_scf_new_mos                    2243  9.0     0.03     0.05  2181.05  2184.58
 qs_scf_loop_do_ot                 2243 10.0     0.16     0.61  2181.03  2184.56
 ot_scf_mini                       2243 11.0     0.29     0.63  1999.31  2003.25
 mp_waitall_1                   6525500 16.7  1926.35  1993.23  1926.35  1993.23
 multiply_cannon                  31773 14.8    16.00    23.99  1722.17  1794.00
 xc_vxc_pw_create                  1240 12.8    55.51    95.93  1693.92  1712.17
 x_to_yz                          13009 18.0    75.50   120.70  1223.22  1418.24
 xc_rho_set_and_dset_create        2322 13.9    11.26    17.89  1254.09  1345.59
 multiply_cannon_metrocomm1      635460 15.8     2.98     4.38   720.45  1310.14
 multiply_cannon_metrocomm3      635460 15.8     2.70     4.02   716.03  1293.93
 yz_to_x                           9686 17.0    53.42    87.67  1001.57  1228.25
 init_scf_loop                       84  8.0     0.03     0.07  1183.86  1183.90
 potential_pw2rs                   1240 13.8     0.88     1.64  1135.72  1142.21
 ot_mini                           2243 12.0     0.02     0.04  1056.89  1065.19
 qs_ks_update_qs_env_forces          79  6.0     0.00     0.00  1045.77  1046.19
 mp_sum_d                         38416 14.3   599.20   877.31   599.20   877.31
 prepare_preconditioner              84  9.0     0.00     0.00   702.19   702.68
 xc_exc_calc                       1082 13.0     4.00     7.13   674.69   674.82
 qs_ot_get_derivative              1161 13.0     0.02     0.05   660.09   665.95
 make_preconditioner                 84 10.0     0.01     0.02   652.55   652.75
 rs_pw_transfer_PW2RS_600          1399 15.3   166.16   278.76   609.66   626.17
 make_full_all                       84 11.0     0.04     0.09   611.26   611.60
 cp_fm_syevd                        802 13.1     0.01     0.03   538.80   558.30
 cp_fm_redistribute_end             802 14.1   269.61   526.17   273.85   538.30
 cp_fm_syevd_base                   802 14.0   246.17   502.03   246.17   502.03
 init_scf_run                        80  7.0     0.00     0.02   427.59   427.62
 scf_env_initial_rho_setup           80  8.0     0.00     0.01   427.59   427.61
 wfi_extrapolate                     80  9.0     0.06     0.21   421.19   421.22
 -------------------------------------------------------------------------------

 The number of warnings for this run is : 2
 
 -------------------------------------------------------------------------------
  **** **** ******  **  PROGRAM ENDED AT                 2019-05-27 12:35:48.475
 ***** ** ***  *** **   PROGRAM RAN ON            blg4814.int.ets1.calculquebec.
 **    ****   ******    PROGRAM RAN BY                                       rzk
 ***** **    ** ** **   PROGRAM PROCESS ID                                 66360
  **** **  *******  **  PROGRAM STOPPED IN /lustre03/project/6004141/rzk/GaN-car
                                           bene/334-native/05-2Methanol/01-Shift
                                           -GaUp
