     156
 i =        1, E =     -6136.6370323191
 Ga         0.0347097036       -0.0014214006       -0.5272426844
  N         0.0381252763        1.8715331350        0.6040187239
 Ga         0.0374534376        1.8413317979        2.6368041157
  N         0.0346480144       -0.0024995567        3.2670279709
 Ga         0.0348828134       -0.0012922185        5.2582642105
  N         0.0380223744        1.8732451469        5.8459555116
 Ga         0.0377848847        1.8718230864        7.8455720640
  N         0.0339520524       -0.0016999184        8.4446675273
 Ga         0.0346234362       -0.0004607714       10.4419310040
  N         0.0400676324        1.8696695371       11.0503902808
 Ga         0.0433155333        1.8697490295       13.0483590033
  N         0.0406461582       -0.0062553021       13.6487010056
 Ga         0.0333730798        0.0045875776       15.6495465204
  N         0.0242456917        1.8783530979       16.1843024627
 Ga         0.0107397834        1.8859064158       18.2105880930
  N         0.0066232664        0.0253761986       18.6924958152
 Ga        -1.5850068416        2.8033415374        0.3218505064
  N        -1.5853794407        4.6730462002        0.6044168199
 Ga        -1.5577236452        4.6886383387        2.6347519291
  N        -1.5849946165        2.8031145146        3.2265717985
 Ga        -1.5849278182        2.8037075316        5.2384912863
  N        -1.5842639573        4.6742193552        5.8450504320
 Ga        -1.5842094572        4.6737808434        7.8440786719
  N        -1.5838609783        2.8041881334        8.4493370939
 Ga        -1.5816990829        2.8061551942       10.4464547316
  N        -1.5811451734        4.6795626576       11.0487382466
 Ga        -1.5814671799        4.6856882535       13.0469601931
  N        -1.5885735906        2.8058971872       13.6247800157
 Ga        -1.5874900039        2.8127742045       15.6124741161
  N        -1.5925895634        4.6700784059       16.2240802387
 Ga        -1.5999488775        4.6893243054       18.2600650261
  N        -1.5788568284        2.8267451492       18.7432367373
 Ga        -3.2047814672        5.6082582367        0.3220470843
  N        -3.1991131037        7.4799374593        0.6035985581
 Ga        -3.2258832699        7.4940496232        2.6364246812
  N        -3.2044965552        5.6086228364        3.2262046470
 Ga        -3.2045400409        5.6094506608        5.2380161591
  N        -3.1990378395        7.4796791051        5.8458302934
 Ga        -3.2005312633        7.4795231592        7.8456283572
  N        -3.2053216539        5.6081588048        8.4468830894
 Ga        -3.2053012400        5.6092000986       10.4428325011
  N        -3.2014203607        7.4814048829       11.0410080086
 Ga        -3.2004048641        7.4811190093       13.0336477703
  N        -3.2071242819        5.6165751621       13.6568989082
 Ga        -3.2120861246        5.6152061396       15.6681206203
  N        -3.1988002135        7.4866205433       16.2766607405
 Ga        -3.2204361470        7.5054207340       18.3687915214
  N        -3.2133995415        5.6279116844       18.7117587601
 Ga         3.2820470353       -0.0017604314        0.3218836745
  N         3.2797574780        1.8677107758        0.6045923121
 Ga         3.3077660349        1.8830599870        2.6348677422
  N         3.2804265091       -0.0024355648        3.2263802540
 Ga         3.2808437150       -0.0009994340        5.2381848052
  N         3.2809199617        1.8690803176        5.8456740625
 Ga         3.2810046796        1.8691108540        7.8450481235
  N         3.2805223342       -0.0014336374        8.4476119573
 Ga         3.2815914573        0.0004152965       10.4438902925
  N         3.2833333837        1.8715513640       11.0495856283
 Ga         3.2802101699        1.8713700781       13.0477451959
  N         3.2756760892       -0.0019056916       13.6428913170
 Ga         3.2704707358        0.0024699684       15.6443737746
  N         3.2806685715        1.8832665030       16.1946280520
 Ga         3.2791769037        1.8790667898       18.2212374531
  N         3.2632496819        0.0276833617       18.7103927580
 Ga         1.6613867786        2.8037906394        0.3219859792
  N         1.6677457861        4.6737445440        0.6045750986
 Ga         1.6389250409        4.6891475471        2.6348816946
  N         1.6607465691        2.8033482557        3.2260495039
 Ga         1.6610514230        2.8041622077        5.2377384122
  N         1.6664466817        4.6741425578        5.8456034084
 Ga         1.6643682642        4.6739284525        7.8447063064
  N         1.6605609393        2.8040108773        8.4494213843
 Ga         1.6611539698        2.8056152236       10.4462485056
  N         1.6614698818        4.6777974779       11.0517056538
 Ga         1.6554297640        4.6804339040       13.0514466815
  N         1.6624965962        2.8125109458       13.6612045411
 Ga         1.6554791983        2.8298256174       15.6739109800
  N         1.6538213239        4.6777643737       16.2892882599
 Ga         1.6218535903        4.6919481525       18.7419542022
  N         1.6490259883        2.7936100885       18.6623796252
 Ga         0.0423637549        5.6098972330       -0.5492826621
  N         0.0447873107        7.4836207707        0.6051346452
 Ga         0.0441663866        7.4519469184        2.6353792676
  N         0.0408211716        5.6084026922        3.2669368655
 Ga         0.0416552284        5.6096402909        5.2572164556
  N         0.0441522753        7.4841092607        5.8453820386
 Ga         0.0433093216        7.4821504095        7.8445131948
  N         0.0403820652        5.6087932655        8.4435295815
 Ga         0.0409963137        5.6108632495       10.4401743787
  N         0.0421043059        7.4794564134       11.0479295717
 Ga         0.0380613269        7.4764723226       13.0451343254
  N         0.0380729103        5.6121659194       13.6754724982
 Ga         0.0439415116        5.6071425761       15.6972439231
  N         0.0440131110        7.4980905841       16.2208323183
 Ga         0.0230132377        7.5132544202       18.2661002004
  N        -0.0237753033        5.6610961635       18.7730485395
 Ga         6.5253346275       -0.0011169177        0.3213828884
  N         6.5329314146        1.8680625190        0.6047834725
 Ga         6.5044408304        1.8831050411        2.6348445482
  N         6.5259921130       -0.0020589187        3.2270210610
 Ga         6.5264273932       -0.0010032036        5.2387208617
  N         6.5316954008        1.8686523888        5.8476183746
 Ga         6.5303850524        1.8689381719        7.8480439242
  N         6.5257691326       -0.0031513339        8.4488611464
 Ga         6.5256932936       -0.0044745780       10.4457777629
  N         6.5283993550        1.8709080361       11.0342087864
 Ga         6.5258849356        1.8711008614       13.0246390795
  N         6.5223677423       -0.0004192637       13.6283200308
 Ga         6.5257374165        0.0054385042       15.6210113015
  N         6.5457199270        1.8672909590       16.2103896914
 Ga         6.5556882339        1.8800506669       18.2705418541
  N         6.5092781790        0.0086240726       18.7128659544
 Ga         4.9074786342        2.8032886057       -0.5493967483
  N         4.9096144768        4.6782097545        0.6047712364
 Ga         4.9092023726        4.6463754013        2.6349942532
  N         4.9063950401        2.8028925879        3.2670301757
 Ga         4.9070149392        2.8037384553        5.2575613782
  N         4.9089181958        4.6785779126        5.8449074820
 Ga         4.9083569922        4.6769386057        7.8438911224
  N         4.9051591936        2.8044299202        8.4440642996
 Ga         4.9043714967        2.8059001113       10.4410529941
  N         4.9079825446        4.6768518901       11.0513244162
 Ga         4.9069168778        4.6794283282       13.0514713945
  N         4.9093251424        2.8027936492       13.6509399094
 Ga         4.9164132014        2.8083561705       15.6563721999
  N         4.8998504524        4.6841241426       16.2058835306
 Ga         4.9063241937        4.6765296163       18.7730507659
  N         4.9093995225        2.7913225846       18.6564955526
 Ga         3.2876585781        5.6082918601        0.3215727754
  N         3.2868468376        7.4794991662        0.6040368250
 Ga         3.3129224821        7.4940220022        2.6368623379
  N         3.2864973230        5.6084861655        3.2261460398
 Ga         3.2865840981        5.6097342199        5.2377196186
  N         3.2870648645        7.4795270899        5.8458405115
 Ga         3.2873997334        7.4789304939        7.8452124544
  N         3.2859481206        5.6083595710        8.4482962637
 Ga         3.2854423082        5.6095373155       10.4445430116
  N         3.2913463967        7.4798221220       11.0503454697
 Ga         3.2910373011        7.4760634850       13.0487285839
  N         3.2794394306        5.6045699735       13.6781390253
 Ga         3.2643032009        5.6042664688       15.7039207934
  N         3.2853847108        7.4929272627       16.2078123430
 Ga         3.2671800051        7.5069995014       18.2435651856
  N         3.2716006594        5.6390722937       18.7126315302
  O         1.2454272675        4.7521710882       21.0720737768
  H         0.4968983323        5.3426876218       20.8165849542
  C         0.6766216652        3.5535928911       21.6700533960
  H        -0.1971996574        3.1921392419       21.1100378674
  H         1.4464635385        2.7770904128       21.6226104392
  H         0.4323385316        3.7516141380       22.7208969469
  O         4.4937542236        4.7550755169       21.0503465011
  H         3.7306926753        5.3438777236       20.8502857735
  C         3.9629069480        3.5534963381       21.6687065511
  H         3.0891978728        3.1916393239       21.1127278924
  H         4.7304781360        2.7776310916       21.6147575536
  H         3.6734409971        3.7520135131       22.7098536247
     156
 i =        2, E =     -6136.6403859872
 Ga         0.0346820035       -0.0014633613       -0.5316710578
  N         0.0382044527        1.8717263802        0.6043869919
 Ga         0.0373315499        1.8412177250        2.6371162623
  N         0.0346375055       -0.0024302800        3.2676140646
 Ga         0.0349055224       -0.0012910020        5.2588112705
  N         0.0381055483        1.8732305137        5.8448233997
 Ga         0.0374794038        1.8717624488        7.8448347575
  N         0.0341546859       -0.0017725061        8.4449765674
 Ga         0.0342023723       -0.0009930156       10.4427785984
  N         0.0394560588        1.8694256016       11.0481838103
 Ga         0.0421023511        1.8702161179       13.0445297496
  N         0.0394943428       -0.0042381059       13.6434825646
 Ga         0.0362220539        0.0019137701       15.6409153530
  N         0.0251114729        1.8760645120       16.1844842032
 Ga         0.0117864493        1.8851547554       18.2153055524
  N         0.0103076752        0.0231824760       18.7048958007
 Ga        -1.5848800393        2.8030738107        0.3227664436
  N        -1.5853997216        4.6731778008        0.6038465067
 Ga        -1.5573732064        4.6887817027        2.6350522415
  N        -1.5851840582        2.8033066163        3.2265852870
 Ga        -1.5848836798        2.8037093437        5.2389918633
  N        -1.5842865294        4.6741351456        5.8442244542
 Ga        -1.5840408365        4.6738035198        7.8437533362
  N        -1.5839332464        2.8042227705        8.4492613120
 Ga        -1.5822611891        2.8061448340       10.4467459934
  N        -1.5815460482        4.6783901074       11.0504346115
 Ga        -1.5827448593        4.6862170757       13.0494539128
  N        -1.5888397794        2.8029590190       13.6210556845
 Ga        -1.5861072234        2.8162911401       15.6075472592
  N        -1.5901533996        4.6714921227       16.2232109188
 Ga        -1.5959384694        4.6924957318       18.2489676608
  N        -1.5803918330        2.8293476131       18.7461528033
 Ga        -3.2050178086        5.6085915096        0.3227028227
  N        -3.1989511949        7.4798881002        0.6040577346
 Ga        -3.2260471290        7.4941558685        2.6368314670
  N        -3.2045004468        5.6083123558        3.2259826580
 Ga        -3.2042796035        5.6095613627        5.2383481436
  N        -3.1990131355        7.4797229206        5.8448386193
 Ga        -3.2004547700        7.4793845989        7.8450103670
  N        -3.2053608122        5.6081246976        8.4479953992
 Ga        -3.2052430542        5.6089313097       10.4451869963
  N        -3.2018703391        7.4816082253       11.0435064557
 Ga        -3.2003051548        7.4779185593       13.0376245686
  N        -3.2075416636        5.6144276845       13.6603690255
 Ga        -3.2159158252        5.6129160450       15.6809907683
  N        -3.1958080174        7.4907352709       16.2660319943
 Ga        -3.2184256356        7.5051242051       18.3425819954
  N        -3.2055508033        5.6305288245       18.7178812160
 Ga         3.2817387469       -0.0017548578        0.3226853074
  N         3.2799812107        1.8677900840        0.6045391843
 Ga         3.3079475797        1.8833159692        2.6352753695
  N         3.2806467404       -0.0022752307        3.2263208217
 Ga         3.2809857947       -0.0011747488        5.2386591447
  N         3.2808143877        1.8688912972        5.8443603238
 Ga         3.2809107103        1.8690659949        7.8439874751
  N         3.2804034606       -0.0013420666        8.4477477582
 Ga         3.2812376141        0.0002811828       10.4448164300
  N         3.2829500975        1.8716957636       11.0523363162
 Ga         3.2806468463        1.8730024070       13.0517621439
  N         3.2763397555       -0.0010542540       13.6339000849
 Ga         3.2696384045        0.0052732431       15.6346758752
  N         3.2791634829        1.8860635560       16.2017922805
 Ga         3.2730222194        1.8850331472       18.2179328266
  N         3.2640160603        0.0307893435       18.6951951970
 Ga         1.6613123809        2.8036598715        0.3229779384
  N         1.6675641791        4.6739198624        0.6038120499
 Ga         1.6387888988        4.6891719978        2.6348386462
  N         1.6608110980        2.8034580008        3.2259556028
 Ga         1.6610917160        2.8041892484        5.2381210833
  N         1.6662716760        4.6742538262        5.8443266528
 Ga         1.6640876994        4.6737692398        7.8439076125
  N         1.6604192341        2.8037706134        8.4497270930
 Ga         1.6609697404        2.8060064789       10.4473240145
  N         1.6616239202        4.6776413848       11.0549066791
 Ga         1.6558967499        4.6806741704       13.0558781226
  N         1.6584427126        2.8105278504       13.6582075044
 Ga         1.6560712626        2.8345298709       15.6695867208
  N         1.6495190391        4.6802279269       16.2988690694
 Ga         1.6105992636        4.6926916165       18.6553205102
  N         1.6478483265        2.7900593724       18.6825919155
 Ga         0.0424434355        5.6098923273       -0.5467052402
  N         0.0447368305        7.4835020560        0.6044891444
 Ga         0.0441118856        7.4517115543        2.6355488529
  N         0.0410354080        5.6084275802        3.2670759293
 Ga         0.0413925377        5.6096778475        5.2576993956
  N         0.0442503938        7.4840169056        5.8444411591
 Ga         0.0432112531        7.4819485174        7.8440502960
  N         0.0405031792        5.6087243598        8.4446207566
 Ga         0.0404706858        5.6102334730       10.4425038815
  N         0.0425086750        7.4798968905       11.0468355123
 Ga         0.0381928764        7.4760687169       13.0434278099
  N         0.0371525454        5.6128606474       13.6605280316
 Ga         0.0427600533        5.6033528173       15.6802412937
  N         0.0433216141        7.4963814297       16.2217207613
 Ga         0.0215812785        7.5104794815       18.2670863833
  N        -0.0286826440        5.6627345485       18.7811028795
 Ga         6.5255934150       -0.0010654500        0.3223217445
  N         6.5325242053        1.8683041419        0.6048279876
 Ga         6.5042880421        1.8831473048        2.6354072816
  N         6.5257500946       -0.0021302295        3.2270410217
 Ga         6.5262941974       -0.0008494648        5.2392472963
  N         6.5317591984        1.8687515660        5.8464857017
 Ga         6.5306643533        1.8688052087        7.8472135493
  N         6.5257543123       -0.0032326068        8.4488182486
 Ga         6.5261261814       -0.0043499756       10.4462267591
  N         6.5281222093        1.8708863532       11.0368114159
 Ga         6.5234927494        1.8711976115       13.0279756651
  N         6.5221340024       -0.0017600271       13.6239976952
 Ga         6.5279915200        0.0048232924       15.6167329901
  N         6.5464720071        1.8681344395       16.2129477054
 Ga         6.5604766897        1.8797674754       18.2664006606
  N         6.5100867228        0.0042352333       18.6990454541
 Ga         4.9073392450        2.8033648592       -0.5488914572
  N         4.9096920864        4.6779277032        0.6046925834
 Ga         4.9089877229        4.6461756684        2.6353452078
  N         4.9064461368        2.8029309504        3.2673980592
 Ga         4.9069509465        2.8035734378        5.2581593149
  N         4.9091472192        4.6785870764        5.8436749664
 Ga         4.9084670573        4.6768897835        7.8430204936
  N         4.9051689578        2.8042476330        8.4442825119
 Ga         4.9041391494        2.8061001764       10.4419775456
  N         4.9078041168        4.6764727146       11.0566861822
 Ga         4.9069214988        4.6794300084       13.0592333054
  N         4.9090523856        2.8023087268       13.6595027235
 Ga         4.9153665508        2.8131587425       15.6741530412
  N         4.9057073567        4.6827487611       16.2368673988
 Ga         4.9029445816        4.6721372371       18.7508569628
  N         4.9129968245        2.7798742018       18.6595506784
 Ga         3.2878381296        5.6084774982        0.3226222001
  N         3.2866582915        7.4794135504        0.6043578975
 Ga         3.3130817303        7.4942017461        2.6371150828
  N         3.2863209665        5.6084048734        3.2260367237
 Ga         3.2866185572        5.6095926217        5.2380469574
  N         3.2869847537        7.4794478601        5.8445911109
 Ga         3.2874831924        7.4792581811        7.8443916611
  N         3.2858501907        5.6084709037        8.4491006630
 Ga         3.2855460376        5.6091471532       10.4464269789
  N         3.2911734114        7.4794828837       11.0536580520
 Ga         3.2909120686        7.4715518009       13.0535000036
  N         3.2793958693        5.6017623512       13.6909122609
 Ga         3.2695744782        5.5987220768       15.7302682570
  N         3.2878167566        7.4917605949       16.2059561885
 Ga         3.2739813521        7.5096912849       18.2328563772
  N         3.2580074392        5.6549053278       18.7465680303
  O         1.2392496777        4.7512463988       21.0864418805
  H         0.5020830608        5.3419158248       20.7937070058
  C         0.6593172046        3.5549524244       21.6784915871
  H        -0.2144632002        3.2087339054       21.1103096523
  H         1.4137638946        2.7645866683       21.6287313244
  H         0.4110380453        3.7497790306       22.7280487371
  O         4.5039545736        4.7590454126       21.0548849498
  H         3.7262566553        5.3364329109       20.8791113708
  C         3.9832309645        3.5515620443       21.6624286174
  H         3.1235603551        3.1836714778       21.0981944466
  H         4.7609007368        2.7870752567       21.6213767725
  H         3.6808290726        3.7544695132       22.7002738395
     156
 i =        3, E =     -6136.6434056672
 Ga         0.0346579382       -0.0014744511       -0.5370039857
  N         0.0381727541        1.8721300772        0.6050383582
 Ga         0.0372721187        1.8408623155        2.6370586249
  N         0.0346466451       -0.0024231829        3.2676661595
 Ga         0.0349988474       -0.0014039741        5.2583913753
  N         0.0381005907        1.8732438430        5.8452088599
 Ga         0.0375245838        1.8715474440        7.8461003444
  N         0.0339530236       -0.0022695720        8.4461091458
 Ga         0.0335215722       -0.0028690536       10.4448429520
  N         0.0389043351        1.8692205239       11.0436722971
 Ga         0.0407868428        1.8694405994       13.0381688114
  N         0.0378348522       -0.0046689773       13.6360971539
 Ga         0.0377375584        0.0033479331       15.6269992337
  N         0.0272864991        1.8736992069       16.1875455084
 Ga         0.0158536293        1.8858197927       18.2235400441
  N         0.0143918960        0.0204076233       18.7119899499
 Ga        -1.5847168001        2.8028336920        0.3231578833
  N        -1.5851018375        4.6734388445        0.6033883316
 Ga        -1.5574331798        4.6887901117        2.6352943680
  N        -1.5851414647        2.8034273501        3.2258708663
 Ga        -1.5849212004        2.8039069703        5.2384347145
  N        -1.5842749264        4.6743285891        5.8448730958
 Ga        -1.5843117298        4.6740023451        7.8452226740
  N        -1.5843055231        2.8041277772        8.4492402562
 Ga        -1.5839306436        2.8059400094       10.4472337652
  N        -1.5826552046        4.6778726061       11.0485757365
 Ga        -1.5864729061        4.6865209354       13.0473652913
  N        -1.5889538367        2.8007041181       13.6191344117
 Ga        -1.5836301982        2.8152037947       15.6039978827
  N        -1.5870949016        4.6719299133       16.2200631395
 Ga        -1.5910066145        4.6966883030       18.2414840908
  N        -1.5819694084        2.8304229765       18.7471669290
 Ga        -3.2051882731        5.6089758211        0.3231019238
  N        -3.1986683399        7.4797498869        0.6047004807
 Ga        -3.2263873413        7.4943612684        2.6367453005
  N        -3.2043883014        5.6083678688        3.2252394546
 Ga        -3.2042769582        5.6094005621        5.2376553427
  N        -3.1988919011        7.4794341708        5.8453865648
 Ga        -3.2005700824        7.4789290326        7.8463248297
  N        -3.2057424514        5.6078922845        8.4499870547
 Ga        -3.2072029209        5.6077355507       10.4479440292
  N        -3.2019045493        7.4803338279       11.0437206407
 Ga        -3.2003278880        7.4736943239       13.0383303433
  N        -3.2096291047        5.6113673494       13.6650624063
 Ga        -3.2220097463        5.6106177311       15.6936138398
  N        -3.1983683951        7.4956599786       16.2545961535
 Ga        -3.2163154772        7.5046247407       18.3153693691
  N        -3.2030339889        5.6322631364       18.7069372994
 Ga         3.2813314320       -0.0017795022        0.3230896672
  N         3.2800904974        1.8678915539        0.6050002104
 Ga         3.3080386938        1.8833289077        2.6358350918
  N         3.2807040988       -0.0023940404        3.2255914335
 Ga         3.2810288231       -0.0012563478        5.2380923168
  N         3.2807867741        1.8688867164        5.8446596637
 Ga         3.2809763509        1.8690815123        7.8448750534
  N         3.2800595423       -0.0012612625        8.4484539612
 Ga         3.2800522532        0.0011381989       10.4462915752
  N         3.2832034752        1.8727077617       11.0536318792
 Ga         3.2820940255        1.8761961747       13.0537436066
  N         3.2768952142        0.0000118974       13.6294894224
 Ga         3.2681097865        0.0103443549       15.6296825865
  N         3.2762894207        1.8940212586       16.2101535217
 Ga         3.2657682445        1.8895039529       18.2202125411
  N         3.2663060511        0.0299826171       18.6702627788
 Ga         1.6610647879        2.8034092717        0.3233681366
  N         1.6672579194        4.6741280763        0.6033799513
 Ga         1.6386988711        4.6893090802        2.6351182660
  N         1.6607876085        2.8035687305        3.2250395359
 Ga         1.6610843158        2.8042596646        5.2373746626
  N         1.6663653228        4.6742480640        5.8449435724
 Ga         1.6642317045        4.6740663465        7.8452222861
  N         1.6605919928        2.8039861563        8.4502597818
 Ga         1.6615372100        2.8066291835       10.4484687173
  N         1.6625974598        4.6774456595       11.0557843074
 Ga         1.6605906920        4.6818168444       13.0568750867
  N         1.6541244967        2.8093292355       13.6558547367
 Ga         1.6530274135        2.8394562212       15.6637384435
  N         1.6455335362        4.6808734556       16.3297357515
 Ga         1.6040431667        4.6966050945       18.5386807600
  N         1.6483500141        2.7914456327       18.6954746512
 Ga         0.0424241306        5.6099165113       -0.5420903375
  N         0.0446813325        7.4831682546        0.6040664800
 Ga         0.0441261830        7.4516672081        2.6358627791
  N         0.0408839620        5.6084285991        3.2664081357
 Ga         0.0414657540        5.6096520740        5.2572484624
  N         0.0441921018        7.4839148255        5.8452417095
 Ga         0.0433011540        7.4816693922        7.8458772449
  N         0.0404861187        5.6081991439        8.4457587627
 Ga         0.0408011809        5.6088895617       10.4446256566
  N         0.0424888762        7.4802201695       11.0417177830
 Ga         0.0390768734        7.4763459084       13.0368947234
  N         0.0363541822        5.6119289353       13.6480478641
 Ga         0.0445079668        5.6013616505       15.6652825009
  N         0.0426853543        7.4972542152       16.2214195274
 Ga         0.0218651497        7.5046558251       18.2689406499
  N        -0.0298622653        5.6613892317       18.7867381090
 Ga         6.5259032461       -0.0010672565        0.3227250437
  N         6.5322630221        1.8684472004        0.6053735552
 Ga         6.5041693098        1.8833097717        2.6360702831
  N         6.5256666041       -0.0021244639        3.2262756600
 Ga         6.5261923368       -0.0010112994        5.2386495506
  N         6.5317691505        1.8686490098        5.8466194407
 Ga         6.5302806417        1.8688935759        7.8479097090
  N         6.5263290459       -0.0030727511        8.4494533616
 Ga         6.5275246310       -0.0044531200       10.4475285404
  N         6.5264877321        1.8708755363       11.0383973131
 Ga         6.5203465691        1.8712681479       13.0302202280
  N         6.5223756356       -0.0035223574       13.6235359077
 Ga         6.5323090538        0.0035030505       15.6156021090
  N         6.5480739940        1.8684610272       16.2208748580
 Ga         6.5600256921        1.8815444582       18.2690984468
  N         6.5116289907        0.0002757770       18.6785595132
 Ga         4.9072754456        2.8034125038       -0.5480781194
  N         4.9096643298        4.6778215827        0.6051110843
 Ga         4.9090925789        4.6460995806        2.6358544359
  N         4.9063587132        2.8029915294        3.2671765018
 Ga         4.9069724593        2.8036988432        5.2578161362
  N         4.9090940448        4.6787472485        5.8443982902
 Ga         4.9085273379        4.6769843241        7.8441687132
  N         4.9049631362        2.8045471362        8.4456846473
 Ga         4.9036574153        2.8075415536       10.4437999573
  N         4.9071907064        4.6757842389       11.0630024007
 Ga         4.9048346284        4.6783613232       13.0672778026
  N         4.9094586532        2.8021598728       13.6722264094
 Ga         4.9163392167        2.8210621307       15.6962207071
  N         4.9102394530        4.6834944404       16.2953698132
 Ga         4.8956989356        4.6731475065       18.7409586067
  N         4.9122456000        2.7777112278       18.6546788491
 Ga         3.2879697859        5.6088774587        0.3230460168
  N         3.2862947379        7.4793161605        0.6050444051
 Ga         3.3133673596        7.4944336579        2.6371014471
  N         3.2863380913        5.6083551371        3.2251668517
 Ga         3.2865875943        5.6095082897        5.2372618667
  N         3.2869671909        7.4792526397        5.8449636970
 Ga         3.2875399016        7.4786100527        7.8453987404
  N         3.2861539149        5.6080871311        8.4514652177
 Ga         3.2865161850        5.6080689508       10.4495381029
  N         3.2909059383        7.4775568650       11.0565330965
 Ga         3.2897939196        7.4642030391       13.0574033251
  N         3.2805428645        5.5981848929       13.7049351361
 Ga         3.2730523475        5.5917641453       15.7556897834
  N         3.2936430468        7.4896117030       16.2075850305
 Ga         3.2830878661        7.5089905834       18.2284915986
  N         3.2449999197        5.6666951420       18.7578001853
  O         1.2421551331        4.7509062914       21.1095437509
  H         0.5118181281        5.3258384884       20.7613185178
  C         0.6313914900        3.5648267077       21.6848263772