 DBCSR| Multiplication driver                                               BLAS
 DBCSR| Multrec recursion limit                                              512
 DBCSR| Multiplication stack size                                           1000
 DBCSR| Maximum elements for images                                    UNLIMITED
 DBCSR| Multiplicative factor virtual images                                   1
 DBCSR| Multiplication size stacks                                             3
 DBCSR| Number of 3D layers                                               SINGLE
 DBCSR| Use MPI memory allocation                                              T
 DBCSR| Use RMA algorithm                                                      F
 DBCSR| Use Communication thread                                               T
 DBCSR| Communication thread load                                             87


  **** **** ******  **  PROGRAM STARTED AT               2019-05-25 20:21:43.185
 ***** ** ***  *** **   PROGRAM STARTED ON        blg9114.int.ets1.calculquebec.
 **    ****   ******    PROGRAM STARTED BY                                   rzk
 ***** **    ** ** **   PROGRAM PROCESS ID                                 95635
  **** **  *******  **  PROGRAM STARTED IN /lustre03/project/6004141/rzk/GaN-car
                                           bene/00-Surface/00-Preoptimization/44
                                           3-capped/CELL_OPT

 CP2K| version string:                    CP2K version 7.0 (Development Version)
 CP2K| source code revision number:                                    svn:18619
 CP2K| cp2kflags: libint fftw3 libxc parallel mpi3 scalapack mkl                
 CP2K| is freely available from                            https://www.cp2k.org/
 CP2K| Program compiled at                          Sun Apr  7 00:48:11 EDT 2019
 CP2K| Program compiled on                      beluga2.int.ets1.calculquebec.ca
 CP2K| Program compiled for                    Beluga-Linux-x86-64-intel-openmpi
 CP2K| Data directory path    /home/rzk/projects/def-rzk/group/cp2k/cp2k-mcgill/
 CP2K| Input file name                                               restart.inp
 
 GLOBAL| Force Environment number                                              1
 GLOBAL| Basis set file name                                        BASIS_MOLOPT
 GLOBAL| Potential file name                                      GTH_POTENTIALS
 GLOBAL| MM Potential file name                                     MM_POTENTIAL
 GLOBAL| Coordinate file name                                      __STD_INPUT__
 GLOBAL| Method name                                                        CP2K
 GLOBAL| Project name                                                       TEST
 GLOBAL| Preferred FFT library                                             FFTW3
 GLOBAL| Preferred diagonalization lib.                                       SL
 GLOBAL| Run type                                                       CELL_OPT
 GLOBAL| All-to-all communication in single precision                          F
 GLOBAL| FFTs using library dependent lengths                                  F
 GLOBAL| Global print level                                               MEDIUM
 GLOBAL| MPI I/O enabled                                                       T
 GLOBAL| Total number of message passing processes                            80
 GLOBAL| Number of threads for this process                                    1
 GLOBAL| This output is from process                                           0
 GLOBAL| CPU model name :  Intel(R) Xeon(R) Gold 6148 CPU @ 2.40GHz

 MEMORY| system memory details [Kb]
 MEMORY|                        rank 0           min           max       average
 MEMORY| MemTotal            196614300     196614300     196614300     196614300
 MEMORY| MemFree             184155136     184152748     184447280     184242824
 MEMORY| Buffers                    76            76            76            76
 MEMORY| Cached                1398260       1386024       1398260       1392142
 MEMORY| Slab                  1019904       1019904       1040972       1030438
 MEMORY| SReclaimable           151440        150744        151440        151092
 MEMORY| MemLikelyFree       185704912     185702524     185984124     185786134


 *** Fundamental physical constants (SI units) ***

 *** Literature: B. J. Mohr and B. N. Taylor,
 ***             CODATA recommended values of the fundamental physical
 ***             constants: 2006, Web Version 5.1
 ***             http://physics.nist.gov/constants

 Speed of light in vacuum [m/s]                             2.99792458000000E+08
 Magnetic constant or permeability of vacuum [N/A**2]       1.25663706143592E-06
 Electric constant or permittivity of vacuum [F/m]          8.85418781762039E-12
 Planck constant (h) [J*s]                                  6.62606896000000E-34
 Planck constant (h-bar) [J*s]                              1.05457162825177E-34
 Elementary charge [C]                                      1.60217648700000E-19
 Electron mass [kg]                                         9.10938215000000E-31
 Electron g factor [ ]                                     -2.00231930436220E+00
 Proton mass [kg]                                           1.67262163700000E-27
 Fine-structure constant                                    7.29735253760000E-03
 Rydberg constant [1/m]                                     1.09737315685270E+07
 Avogadro constant [1/mol]                                  6.02214179000000E+23
 Boltzmann constant [J/K]                                   1.38065040000000E-23
 Atomic mass unit [kg]                                      1.66053878200000E-27
 Bohr radius [m]                                            5.29177208590000E-11

 *** Conversion factors ***

 [u] -> [a.u.]                                              1.82288848426455E+03
 [Angstrom] -> [Bohr] = [a.u.]                              1.88972613288564E+00
 [a.u.] = [Bohr] -> [Angstrom]                              5.29177208590000E-01
 [a.u.] -> [s]                                              2.41888432650478E-17
 [a.u.] -> [fs]                                             2.41888432650478E-02
 [a.u.] -> [J]                                              4.35974393937059E-18
 [a.u.] -> [N]                                              8.23872205491840E-08
 [a.u.] -> [K]                                              3.15774647902944E+05
 [a.u.] -> [kJ/mol]                                         2.62549961709828E+03
 [a.u.] -> [kcal/mol]                                       6.27509468713739E+02
 [a.u.] -> [Pa]                                             2.94210107994716E+13
 [a.u.] -> [bar]                                            2.94210107994716E+08
 [a.u.] -> [atm]                                            2.90362800883016E+08
 [a.u.] -> [eV]                                             2.72113838565563E+01
 [a.u.] -> [Hz]                                             6.57968392072181E+15
 [a.u.] -> [1/cm] (wave numbers)                            2.19474631370540E+05
 [a.u./Bohr**2] -> [1/cm]                                   5.14048714338585E+03
 

 CELL_TOP| Volume [angstrom^3]:                                         4232.876
 CELL_TOP| Vector a [angstrom    12.982     0.000     0.000    |a| =      12.982
 CELL_TOP| Vector b [angstrom    -6.491    11.243     0.000    |b| =      12.982
 CELL_TOP| Vector c [angstrom     0.000     0.000    29.000    |c| =      29.000
 CELL_TOP| Angle (b,c), alpha [degree]:                                   90.000
 CELL_TOP| Angle (a,c), beta  [degree]:                                   90.000
 CELL_TOP| Angle (a,b), gamma [degree]:                                  120.000
 CELL_TOP| Numerically orthorhombic:                                          NO
 
 GENERATE|  Preliminary Number of Bonds generated:                             0
 GENERATE|  Achieved consistency in connectivity generation.

 CELL| Volume [angstrom^3]:                                             4232.876
 CELL| Vector a [angstrom]:      12.982     0.000     0.000    |a| =      12.982
 CELL| Vector b [angstrom]:      -6.491    11.243     0.000    |b| =      12.982
 CELL| Vector c [angstrom]:       0.000     0.000    29.000    |c| =      29.000
 CELL| Angle (b,c), alpha [degree]:                                       90.000
 CELL| Angle (a,c), beta  [degree]:                                       90.000
 CELL| Angle (a,b), gamma [degree]:                                      120.000
 CELL| Numerically orthorhombic:                                              NO

 CELL_REF| Volume [angstrom^3]:                                         4232.876
 CELL_REF| Vector a [angstrom    12.982     0.000     0.000    |a| =      12.982
 CELL_REF| Vector b [angstrom    -6.491    11.243     0.000    |b| =      12.982
 CELL_REF| Vector c [angstrom     0.000     0.000    29.000    |c| =      29.000
 CELL_REF| Angle (b,c), alpha [degree]:                                   90.000
 CELL_REF| Angle (a,c), beta  [degree]:                                   90.000
 CELL_REF| Angle (a,b), gamma [degree]:                                  120.000
 CELL_REF| Numerically orthorhombic:                                          NO

 *******************************************************************************
 *******************************************************************************
 **                                                                           **
 **     #####                         ##              ##                      **
 **    ##   ##            ##          ##              ##                      **
 **   ##     ##                       ##            ######                    **
 **   ##     ##  ##   ##  ##   #####  ##  ##   ####   ##    #####    #####    **
 **   ##     ##  ##   ##  ##  ##      ## ##   ##      ##   ##   ##  ##   ##   **
 **   ##  ## ##  ##   ##  ##  ##      ####     ###    ##   ######   ######    **
 **    ##  ###   ##   ##  ##  ##      ## ##      ##   ##   ##       ##        **
 **     #######   #####   ##   #####  ##  ##  ####    ##    #####   ##        **
 **           ##                                                    ##        **
 **                                                                           **
 **                                                ... make the atoms dance   **
 **                                                                           **
 **            Copyright (C) by CP2K developers group (2000 - 2018)           **
 **                                                                           **
 *******************************************************************************

 DFT| Spin restricted Kohn-Sham (RKS) calculation                            RKS
 DFT| Multiplicity                                                             1
 DFT| Number of spin states                                                    1
 DFT| Charge                                                                   0
 DFT| Self-interaction correction (SIC)                                       NO
 DFT| Cutoffs: density                                              1.000000E-10
 DFT|          gradient                                             1.000000E-10
 DFT|          tau                                                  1.000000E-10
 DFT|          cutoff_smoothing_range                               0.000000E+00
 DFT| XC density smoothing                                                  NONE
 DFT| XC derivatives                                                          PW
 FUNCTIONAL| ROUTINE=NEW
 FUNCTIONAL| PBE:
 FUNCTIONAL| J.P.Perdew, K.Burke, M.Ernzerhof, Phys. Rev. Letter, vol. 77, n 18,
 FUNCTIONAL|  pp. 3865-3868, (1996){spin unpolarized}                           
 vdW POTENTIAL|                                                   Pair Potential
 vdW POTENTIAL|          DFT-D3 (Version 3.1)
 vdW POTENTIAL|          Potential Form: S. Grimme et al, JCP 132: 154104 (2010)
 vdW POTENTIAL|          Zero Damping
 vdW POTENTIAL|          Cutoff Radius [Bohr]:                             18.90
 vdW POTENTIAL|          s6 Scaling Factor:                               1.0000
 vdW POTENTIAL|          sr6 Scaling Factor:                              1.2170
 vdW POTENTIAL|          s8 Scaling Factor:                               0.7220
 vdW POTENTIAL|          Cutoff for CN calculation:                   0.1000E-05

 QS| Method:                                                                 GPW
 QS| Density plane wave grid type                        NON-SPHERICAL FULLSPACE
 QS| Number of grid levels:                                                    5
 QS| Density cutoff [a.u.]:                                                600.0
 QS| Multi grid cutoff [a.u.]: 1) grid level                               600.0
 QS|                           2) grid level                               200.0
 QS|                           3) grid level                                66.7
 QS|                           4) grid level                                22.2
 QS|                           5) grid level                                 7.4
 QS| Grid level progression factor:                                          3.0
 QS| Relative density cutoff [a.u.]:                                        20.0
 QS| Consistent realspace mapping and integration 
 QS| Interaction thresholds: eps_pgf_orb:                                1.0E-07
 QS|                         eps_filter_matrix:                          0.0E+00
 QS|                         eps_core_charge:                            1.0E-16
 QS|                         eps_rho_gspace:                             1.0E-14
 QS|                         eps_rho_rspace:                             1.0E-14
 QS|                         eps_gvg_rspace:                             1.0E-07
 QS|                         eps_ppl:                                    1.0E-02
 QS|                         eps_ppnl:                                   1.0E-09


 ATOMIC KIND INFORMATION

  1. Atomic kind: Ga                                    Number of atoms:      96

     Orbital Basis Set                                        DZVP-MOLOPT-SR-GTH

       Number of orbital shell sets:                                           1
       Number of orbital shells:                                               7
       Number of primitive Cartesian functions:                                6
       Number of Cartesian basis functions:                                   30
       Number of spherical basis functions:                                   25
       Norm type:                                                              2

       Normalised Cartesian orbitals:

                        Set   Shell   Orbital            Exponent    Coefficient

                          1       1    2s                7.066654       0.013136
                                                         3.428369      -0.094392
                                                         1.430064       0.265435
                                                         0.571611       0.056465
                                                         0.232197      -0.192187
                                                         0.076562      -0.044987

                          1       2    3s                7.066654      -0.098564
                                                         3.428369       0.010390
                                                         1.430064       0.351249
                                                         0.571611       0.182615
                                                         0.232197      -0.425358
                                                         0.076562       0.190349

                          1       3    3px               7.066654       0.002364
                                                         3.428369       0.019222
                                                         1.430064       0.250132
                                                         0.571611      -0.058486
                                                         0.232197      -0.159451
                                                         0.076562      -0.020696
                          1       3    3py               7.066654       0.002364
                                                         3.428369       0.019222
                                                         1.430064       0.250132
                                                         0.571611      -0.058486
                                                         0.232197      -0.159451
                                                         0.076562      -0.020696
                          1       3    3pz               7.066654       0.002364
                                                         3.428369       0.019222
                                                         1.430064       0.250132
                                                         0.571611      -0.058486
                                                         0.232197      -0.159451
                                                         0.076562      -0.020696

                          1       4    4px               7.066654       0.492448
                                                         3.428369      -0.614736
                                                         1.430064      -0.191654
                                                         0.571611       0.037801
                                                         0.232197       0.302315
                                                         0.076562      -0.071336
                          1       4    4py               7.066654       0.492448
                                                         3.428369      -0.614736
                                                         1.430064      -0.191654
                                                         0.571611       0.037801
                                                         0.232197       0.302315
                                                         0.076562      -0.071336
                          1       4    4pz               7.066654       0.492448
                                                         3.428369      -0.614736
                                                         1.430064      -0.191654
                                                         0.571611       0.037801
                                                         0.232197       0.302315
                                                         0.076562      -0.071336

                          1       5    4dx2              7.066654     -15.264855
                                                         3.428369      -5.345726
                                                         1.430064      -1.022732
                                                         0.571611      -0.123148
                                                         0.232197      -0.006983
                                                         0.076562      -0.000022
                          1       5    4dxy              7.066654     -26.439504
                                                         3.428369      -9.259069
                                                         1.430064      -1.771423
                                                         0.571611      -0.213299
                                                         0.232197      -0.012094
                                                         0.076562      -0.000037
                          1       5    4dxz              7.066654     -26.439504
                                                         3.428369      -9.259069
                                                         1.430064      -1.771423
                                                         0.571611      -0.213299
                                                         0.232197      -0.012094
                                                         0.076562      -0.000037
                          1       5    4dy2              7.066654     -15.264855
                                                         3.428369      -5.345726
                                                         1.430064      -1.022732
                                                         0.571611      -0.123148
                                                         0.232197      -0.006983
                                                         0.076562      -0.000022
                          1       5    4dyz              7.066654     -26.439504
                                                         3.428369      -9.259069
                                                         1.430064      -1.771423
                                                         0.571611      -0.213299
                                                         0.232197      -0.012094
                                                         0.076562      -0.000037
                          1       5    4dz2              7.066654     -15.264855
                                                         3.428369      -5.345726
                                                         1.430064      -1.022732
                                                         0.571611      -0.123148
                                                         0.232197      -0.006983
                                                         0.076562      -0.000022

                          1       6    5dx2              7.066654      -5.739265
                                                         3.428369      -2.129289
                                                         1.430064      -0.700423
                                                         0.571611       0.161606
                                                         0.232197       0.043513
                                                         0.076562       0.011205
                          1       6    5dxy              7.066654      -9.940698
                                                         3.428369      -3.688037
                                                         1.430064      -1.213168
                                                         0.571611       0.279909
                                                         0.232197       0.075368
                                                         0.076562       0.019407
                          1       6    5dxz              7.066654      -9.940698
                                                         3.428369      -3.688037
                                                         1.430064      -1.213168
                                                         0.571611       0.279909
                                                         0.232197       0.075368
                                                         0.076562       0.019407
                          1       6    5dy2              7.066654      -5.739265
                                                         3.428369      -2.129289
                                                         1.430064      -0.700423
                                                         0.571611       0.161606
                                                         0.232197       0.043513
                                                         0.076562       0.011205
                          1       6    5dyz              7.066654      -9.940698
                                                         3.428369      -3.688037
                                                         1.430064      -1.213168
                                                         0.571611       0.279909
                                                         0.232197       0.075368
                                                         0.076562       0.019407
                          1       6    5dz2              7.066654      -5.739265
                                                         3.428369      -2.129289
                                                         1.430064      -0.700423
                                                         0.571611       0.161606
                                                         0.232197       0.043513
                                                         0.076562       0.011205

                          1       7    5fx3              7.066654       0.705879
                                                         3.428369      -0.273976
                                                         1.430064       0.113667
                                                         0.571611       0.132480
                                                         0.232197       0.012437
                                                         0.076562       0.003241
                          1       7    5fx2y             7.066654       1.578393
                                                         3.428369      -0.612629
                                                         1.430064       0.254167
                                                         0.571611       0.296234
                                                         0.232197       0.027811
                                                         0.076562       0.007246
                          1       7    5fx2z             7.066654       1.578393
                                                         3.428369      -0.612629
                                                         1.430064       0.254167
                                                         0.571611       0.296234
                                                         0.232197       0.027811
                                                         0.076562       0.007246
                          1       7    5fxy2             7.066654       1.578393
                                                         3.428369      -0.612629
                                                         1.430064       0.254167
                                                         0.571611       0.296234
                                                         0.232197       0.027811
                                                         0.076562       0.007246
                          1       7    5fxyz             7.066654       2.733856
                                                         3.428369      -1.061105
                                                         1.430064       0.440230
                                                         0.571611       0.513092
                                                         0.232197       0.048170
                                                         0.076562       0.012551
                          1       7    5fxz2             7.066654       1.578393
                                                         3.428369      -0.612629
                                                         1.430064       0.254167
                                                         0.571611       0.296234
                                                         0.232197       0.027811
                                                         0.076562       0.007246
                          1       7    5fy3              7.066654       0.705879
                                                         3.428369      -0.273976
                                                         1.430064       0.113667
                                                         0.571611       0.132480
                                                         0.232197       0.012437
                                                         0.076562       0.003241
                          1       7    5fy2z             7.066654       1.578393
                                                         3.428369      -0.612629
                                                         1.430064       0.254167
                                                         0.571611       0.296234
                                                         0.232197       0.027811
                                                         0.076562       0.007246
                          1       7    5fyz2             7.066654       1.578393
                                                         3.428369      -0.612629
                                                         1.430064       0.254167
                                                         0.571611       0.296234
                                                         0.232197       0.027811
                                                         0.076562       0.007246
                          1       7    5fz3              7.066654       0.705879
                                                         3.428369      -0.273976
                                                         1.430064       0.113667
                                                         0.571611       0.132480
                                                         0.232197       0.012437
                                                         0.076562       0.003241

     GTH Potential information for                                   GTH-PBE-q13

       Description:                       Goedecker-Teter-Hutter pseudopotential
                                           Goedecker et al., PRB 54, 1703 (1996)
                                          Hartwigsen et al., PRB 58, 3641 (1998)
                                                      Krack, TCA 114, 145 (2005)

       Gaussian exponent of the core charge distribution:               2.082466
       Electronic configuration (s p d ...):                           2   1  10

       Parameters of the local part of the GTH pseudopotential:

                          rloc        C1          C2          C3          C4
                        0.490000

       Parameters of the non-local part of the GTH pseudopotential:

                   l      r(l)      h(i,j,l)

                   0    0.416777   10.475690   -4.921768    0.870706
                                   -4.921768    7.770178   -2.248152
                                    0.870706   -2.248152    1.784415
                   1    0.569627    1.777985    0.195860
                                    0.195860   -0.231744
                   2    0.238126  -16.248680

  2. Atomic kind: N                                     Number of atoms:      96

     Orbital Basis Set                                        DZVP-MOLOPT-SR-GTH

       Number of orbital shell sets:                                           1
       Number of orbital shells:                                               5
       Number of primitive Cartesian functions:                                5
       Number of Cartesian basis functions:                                   14
       Number of spherical basis functions:                                   13
       Norm type:                                                              2

       Normalised Cartesian orbitals:

                        Set   Shell   Orbital            Exponent    Coefficient

                          1       1    2s                7.341988       0.360561
                                                         2.542637       0.139177
                                                         0.888575      -0.289383
                                                         0.333802      -0.182244
                                                         0.112012      -0.019197

                          1       2    3s                7.341988       0.282000
                                                         2.542637       0.177875
                                                         0.888575      -0.278381
                                                         0.333802       0.008577
                                                         0.112012       0.154176

                          1       3    3px               7.341988      -1.188719
                                                         2.542637      -0.973969
                                                         0.888575      -0.501079
                                                         0.333802      -0.144894
                                                         0.112012      -0.013986
                          1       3    3py               7.341988      -1.188719
                                                         2.542637      -0.973969
                                                         0.888575      -0.501079
                                                         0.333802      -0.144894
                                                         0.112012      -0.013986
                          1       3    3pz               7.341988      -1.188719
                                                         2.542637      -0.973969
                                                         0.888575      -0.501079
                                                         0.333802      -0.144894
                                                         0.112012      -0.013986

                          1       4    4px               7.341988      -0.094798
                                                         2.542637       0.050069
                                                         0.888575      -0.114797
                                                         0.333802       0.144793
                                                         0.112012       0.066710
                          1       4    4py               7.341988      -0.094798
                                                         2.542637       0.050069
                                                         0.888575      -0.114797
                                                         0.333802       0.144793
                                                         0.112012       0.066710
                          1       4    4pz               7.341988      -0.094798
                                                         2.542637       0.050069
                                                         0.888575      -0.114797
                                                         0.333802       0.144793
                                                         0.112012       0.066710

                          1       5    4dx2              7.341988       1.354688
                                                         2.542637       0.690378
                                                         0.888575       0.855359
                                                         0.333802       0.091746
                                                         0.112012       0.001253
                          1       5    4dxy              7.341988       2.346389
                                                         2.542637       1.195770
                                                         0.888575       1.481524
                                                         0.333802       0.158910
                                                         0.112012       0.002169
                          1       5    4dxz              7.341988       2.346389
                                                         2.542637       1.195770
                                                         0.888575       1.481524
                                                         0.333802       0.158910
                                                         0.112012       0.002169
                          1       5    4dy2              7.341988       1.354688
                                                         2.542637       0.690378
                                                         0.888575       0.855359
                                                         0.333802       0.091746
                                                         0.112012       0.001253
                          1       5    4dyz              7.341988       2.346389
                                                         2.542637       1.195770
                                                         0.888575       1.481524
                                                         0.333802       0.158910
                                                         0.112012       0.002169
                          1       5    4dz2              7.341988       1.354688
                                                         2.542637       0.690378
                                                         0.888575       0.855359
                                                         0.333802       0.091746
                                                         0.112012       0.001253

     GTH Potential information for                                    GTH-PBE-q5

       Description:                       Goedecker-Teter-Hutter pseudopotential
                                           Goedecker et al., PRB 54, 1703 (1996)
                                          Hartwigsen et al., PRB 58, 3641 (1998)
                                                      Krack, TCA 114, 145 (2005)

       Gaussian exponent of the core charge distribution:               6.208322
       Electronic configuration (s p d ...):                               2   3

       Parameters of the local part of the GTH pseudopotential:

                          rloc        C1          C2          C3          C4
                        0.283791  -12.415226    1.868096

       Parameters of the non-local part of the GTH pseudopotential:

                   l      r(l)      h(i,j,l)

                   0    0.255405   13.630263
                   1    0.245495

  3. Atomic kind: H                                     Number of atoms:      16

     Orbital Basis Set                                     DZVP-MOLOPT-SR-GTH-q1

       Number of orbital shell sets:                                           1
       Number of orbital shells:                                               3
       Number of primitive Cartesian functions:                                5
       Number of Cartesian basis functions:                                    5
       Number of spherical basis functions:                                    5
       Norm type:                                                              2

       Normalised Cartesian orbitals:

                        Set   Shell   Orbital            Exponent    Coefficient

                          1       1    2s               10.068468      -0.133023
                                                         2.680223      -0.177618
                                                         0.791502      -0.258419
                                                         0.239116      -0.107525
                                                         0.082193      -0.014019

                          1       2    3s               10.068468       0.344673
                                                         2.680223       1.819821
                                                         0.791502      -0.999069
                                                         0.239116       0.017430
                                                         0.082193       0.082660

                          1       3    3px              10.068468       0.155326
                                                         2.680223       0.367157
                                                         0.791502       0.311480
                                                         0.239116       0.080105
                                                         0.082193       0.033440
                          1       3    3py              10.068468       0.155326
                                                         2.680223       0.367157
                                                         0.791502       0.311480
                                                         0.239116       0.080105
                                                         0.082193       0.033440
                          1       3    3pz              10.068468       0.155326
                                                         2.680223       0.367157
                                                         0.791502       0.311480
                                                         0.239116       0.080105
                                                         0.082193       0.033440

     GTH Potential information for                                    GTH-PBE-q1

       Description:                       Goedecker-Teter-Hutter pseudopotential
                                           Goedecker et al., PRB 54, 1703 (1996)
                                          Hartwigsen et al., PRB 58, 3641 (1998)
                                                      Krack, TCA 114, 145 (2005)

       Gaussian exponent of the core charge distribution:              12.500000
       Electronic configuration (s p d ...):                                   1

       Parameters of the local part of the GTH pseudopotential:

                          rloc        C1          C2          C3          C4
                        0.200000   -4.178900    0.724463


 MOLECULE KIND INFORMATION


 All atoms are their own molecule, skipping detailed information


 TOTAL NUMBERS AND MAXIMUM NUMBERS

  Total number of            - Atomic kinds:                                   3
                             - Atoms:                                        208
                             - Shell sets:                                   208
                             - Shells:                                      1200
                             - Primitive Cartesian functions:               1136
                             - Cartesian basis functions:                   4304
                             - Spherical basis functions:                   3728

  Maximum angular momentum of- Orbital basis functions:                        3
                             - Local part of the GTH pseudopotential:          2
                             - Non-local part of the GTH pseudopotential:      4


 MODULE QUICKSTEP:  ATOMIC COORDINATES IN angstrom

  Atom  Kind  Element       X           Y           Z          Z(eff)       Mass

       1     1 Ga  31    0.000660   -0.000100   -0.145020     13.00      69.7230
       2     2 N    7    0.000591    1.873681    0.629968      5.00      14.0067
       3     1 Ga  31    0.001112    1.873560    2.567359     13.00      69.7230
       4     2 N    7    0.000881   -0.000220    3.244836      5.00      14.0067
       5     1 Ga  31    0.000881   -0.000033    5.207612     13.00      69.7230
       6     2 N    7    0.000531    1.874024    5.856948      5.00      14.0067
       7     1 Ga  31    0.001755    1.874056    7.826823     13.00      69.7230
       8     2 N    7    0.001134    0.000570    8.467124      5.00      14.0067
       9     1 Ga  31    0.001175    0.000944   10.455990     13.00      69.7230
      10     2 N    7   -0.000960    1.874593   11.029113      5.00      14.0067
      11     1 Ga  31   -0.000817    1.873839   13.108394     13.00      69.7230
      12     2 N    7    0.000622    0.000738   13.440810      5.00      14.0067
      13     1 Ga  31   -1.622058    2.810598   -0.146031     13.00      69.7230
      14     2 N    7   -1.622111    4.684444    0.629026      5.00      14.0067
      15     1 Ga  31   -1.621814    4.684345    2.566323     13.00      69.7230
      16     2 N    7   -1.622030    2.810541    3.244073      5.00      14.0067
      17     1 Ga  31   -1.621802    2.810294    5.206622     13.00      69.7230
      18     2 N    7   -1.622147    4.684353    5.855624      5.00      14.0067
      19     1 Ga  31   -1.621979    4.684419    7.825064     13.00      69.7230
      20     2 N    7   -1.623133    2.810817    8.465141      5.00      14.0067
      21     1 Ga  31   -1.622592    2.810001   10.454004     13.00      69.7230
      22     2 N    7   -1.622750    4.684344   11.027604      5.00      14.0067
      23     1 Ga  31   -1.622819    4.684259   13.107856     13.00      69.7230
      24     2 N    7   -1.623084    2.810751   13.442886      5.00      14.0067
      25     1 Ga  31   -3.244922    5.621578   -0.146575     13.00      69.7230
      26     2 N    7   -3.244870    7.495174    0.629256      5.00      14.0067
      27     1 Ga  31   -3.244652    7.495229    2.566617     13.00      69.7230
      28     2 N    7   -3.244705    5.621236    3.243452      5.00      14.0067
      29     1 Ga  31   -3.244798    5.621285    5.205806     13.00      69.7230
      30     2 N    7   -3.244591    7.495172    5.855748      5.00      14.0067
      31     1 Ga  31   -3.245083    7.495880    7.825342     13.00      69.7230
      32     2 N    7   -3.244700    5.622043    8.464258      5.00      14.0067
      33     1 Ga  31   -3.244572    5.623149   10.452965     13.00      69.7230
      34     2 N    7   -3.243616    7.497190   11.027423      5.00      14.0067
      35     1 Ga  31   -3.245125    7.494681   13.107906     13.00      69.7230
      36     2 N    7   -3.246010    5.621301   13.443147      5.00      14.0067
      37     1 Ga  31   -4.867803    8.432388   -0.145664     13.00      69.7230
      38     2 N    7   -4.867798   10.305841    0.630189      5.00      14.0067
      39     1 Ga  31   -4.867383   10.305827    2.567630     13.00      69.7230
      40     2 N    7   -4.867501    8.431853    3.244231      5.00      14.0067
      41     1 Ga  31   -4.867968    8.432201    5.206844     13.00      69.7230
      42     2 N    7   -4.867881   10.305686    5.856745      5.00      14.0067
      43     1 Ga  31   -4.867755   10.305650    7.826525     13.00      69.7230
      44     2 N    7   -4.868057    8.431029    8.466025      5.00      14.0067
      45     1 Ga  31   -4.868520    8.431235   10.454689     13.00      69.7230
      46     2 N    7   -4.868547   10.303937   11.031520      5.00      14.0067
      47     1 Ga  31   -4.868540   10.305335   13.110595     13.00      69.7230
      48     2 N    7   -4.867805    8.431340   13.441745      5.00      14.0067
      49     1 Ga  31    3.246204   -0.000109   -0.145044     13.00      69.7230
      50     2 N    7    3.246212    1.873647    0.630141      5.00      14.0067
      51     1 Ga  31    3.246601    1.873468    2.567622     13.00      69.7230
      52     2 N    7    3.246545   -0.000433    3.244575      5.00      14.0067
      53     1 Ga  31    3.246085   -0.000163    5.207270     13.00      69.7230
      54     2 N    7    3.246322    1.873338    5.856982      5.00      14.0067
      55     1 Ga  31    3.245842    1.873087    7.826867     13.00      69.7230
      56     2 N    7    3.246306   -0.001587    8.466957      5.00      14.0067
      57     1 Ga  31    3.245316   -0.001239   10.455719     13.00      69.7230
      58     2 N    7    3.244311    1.871881   11.031383      5.00      14.0067
      59     1 Ga  31    3.246112    1.872634   13.110491     13.00      69.7230
      60     2 N    7    3.246441   -0.001460   13.440837      5.00      14.0067
      61     1 Ga  31    1.623391    2.810610   -0.145133     13.00      69.7230
      62     2 N    7    1.623407    4.684516    0.629648      5.00      14.0067
      63     1 Ga  31    1.623903    4.684289    2.567097     13.00      69.7230
      64     2 N    7    1.623721    2.810550    3.244685      5.00      14.0067
      65     1 Ga  31    1.623763    2.810625    5.207610     13.00      69.7230
      66     2 N    7    1.623662    4.684872    5.856639      5.00      14.0067
      67     1 Ga  31    1.624430    4.684192    7.826447     13.00      69.7230
      68     2 N    7    1.623814    2.811425    8.466575      5.00      14.0067
      69     1 Ga  31    1.622977    2.810301   10.455231     13.00      69.7230
      70     2 N    7    1.623750    4.684775   11.030285      5.00      14.0067
      71     1 Ga  31    1.622702    4.685374   13.109134     13.00      69.7230
      72     2 N    7    1.622930    2.810642   13.437584      5.00      14.0067
      73     1 Ga  31    0.000659    5.621548   -0.146227     13.00      69.7230
      74     2 N    7    0.000699    7.495212    0.629307      5.00      14.0067
      75     1 Ga  31    0.001043    7.495151    2.566712     13.00      69.7230
      76     2 N    7    0.000840    5.621263    3.243732      5.00      14.0067
      77     1 Ga  31    0.001226    5.620990    5.206275     13.00      69.7230
      78     2 N    7    0.001137    7.494974    5.855968      5.00      14.0067
      79     1 Ga  31    0.000968    7.494926    7.825573     13.00      69.7230
      80     2 N    7    0.000052    5.621040    8.465540      5.00      14.0067
      81     1 Ga  31    0.001339    5.621844   10.454395     13.00      69.7230
      82     2 N    7    0.000218    7.495614   11.027754      5.00      14.0067
      83     1 Ga  31    0.000927    7.495404   13.107674     13.00      69.7230
      84     2 N    7   -0.000277    5.621455   13.441401      5.00      14.0067
      85     1 Ga  31   -1.622095    8.432405   -0.146192     13.00      69.7230
      86     2 N    7   -1.622039   10.305888    0.629849      5.00      14.0067
      87     1 Ga  31   -1.621779   10.305984    2.567255     13.00      69.7230
      88     2 N    7   -1.621802    8.431998    3.243858      5.00      14.0067
      89     1 Ga  31   -1.621661    8.432336    5.206323     13.00      69.7230
      90     2 N    7   -1.621497   10.306092    5.856078      5.00      14.0067
      91     1 Ga  31   -1.622328   10.306825    7.825615     13.00      69.7230
      92     2 N    7   -1.621551    8.432538    8.464134      5.00      14.0067
      93     1 Ga  31   -1.621485    8.432280   10.452471     13.00      69.7230
      94     2 N    7   -1.620445   10.306055   11.029412      5.00      14.0067
      95     1 Ga  31   -1.621898   10.304626   13.109738     13.00      69.7230
      96     2 N    7   -1.622532    8.430791   13.444313      5.00      14.0067
      97     1 Ga  31    6.491931   -0.000020   -0.145931     13.00      69.7230
      98     2 N    7    6.491910    1.873598    0.629606      5.00      14.0067
      99     1 Ga  31    6.492042    1.873551    2.566942     13.00      69.7230
     100     2 N    7    6.492267   -0.000250    3.244209      5.00      14.0067
     101     1 Ga  31    6.492268   -0.000085    5.206640     13.00      69.7230
     102     2 N    7    6.492416    1.873546    5.856353      5.00      14.0067
     103     1 Ga  31    6.491401    1.874078    7.825844     13.00      69.7230
     104     2 N    7    6.492631    0.000165    8.465790      5.00      14.0067
     105     1 Ga  31    6.492697    0.000947   10.454828     13.00      69.7230
     106     2 N    7    6.492530    1.875764   11.028154      5.00      14.0067
     107     1 Ga  31    6.492849    1.872262   13.108044     13.00      69.7230
     108     2 N    7    6.491995   -0.000800   13.441205      5.00      14.0067
     109     1 Ga  31    4.868912    2.810633   -0.145354     13.00      69.7230
     110     2 N    7    4.869015    4.684420    0.629687      5.00      14.0067
     111     1 Ga  31    4.869310    4.684197    2.567095     13.00      69.7230
     112     2 N    7    4.869395    2.810387    3.244451      5.00      14.0067
     113     1 Ga  31    4.868902    2.810277    5.207153     13.00      69.7230
     114     2 N    7    4.869062    4.684059    5.856516      5.00      14.0067
     115     1 Ga  31    4.868973    4.683079    7.826168     13.00      69.7230
     116     2 N    7    4.868983    2.809139    8.466323      5.00      14.0067
     117     1 Ga  31    4.867007    2.808725   10.454847     13.00      69.7230
     118     2 N    7    4.868675    4.682751   11.030604      5.00      14.0067
     119     1 Ga  31    4.868153    4.683839   13.109580     13.00      69.7230
     120     2 N    7    4.869330    2.809155   13.440048      5.00      14.0067
     121     1 Ga  31    3.246118    5.621618   -0.145364     13.00      69.7230
     122     2 N    7    3.246172    7.495255    0.629833      5.00      14.0067
     123     1 Ga  31    3.246721    7.495094    2.567229     13.00      69.7230
     124     2 N    7    3.246586    5.621325    3.244337      5.00      14.0067
     125     1 Ga  31    3.246588    5.621295    5.207093     13.00      69.7230
     126     2 N    7    3.246545    7.495513    5.856879      5.00      14.0067
     127     1 Ga  31    3.247346    7.494828    7.826661     13.00      69.7230
     128     2 N    7    3.247095    5.621873    8.466773      5.00      14.0067
     129     1 Ga  31    3.246456    5.622752   10.455530     13.00      69.7230
     130     2 N    7    3.246518    7.496932   11.029981      5.00      14.0067
     131     1 Ga  31    3.246373    7.495450   13.109308     13.00      69.7230
     132     2 N    7    3.246021    5.621537   13.440404      5.00      14.0067
     133     1 Ga  31    1.623501    8.432439   -0.145988     13.00      69.7230
     134     2 N    7    1.623472   10.305899    0.629713      5.00      14.0067
     135     1 Ga  31    1.623793   10.305911    2.567013     13.00      69.7230
     136     2 N    7    1.623771    8.432091    3.244181      5.00      14.0067
     137     1 Ga  31    1.624127    8.432061    5.206698     13.00      69.7230
     138     2 N    7    1.623924   10.305889    5.856550      5.00      14.0067
     139     1 Ga  31    1.623657   10.305897    7.826026     13.00      69.7230
     140     2 N    7    1.623349    8.431903    8.465419      5.00      14.0067
     141     1 Ga  31    1.623782    8.430758   10.454141     13.00      69.7230
     142     2 N    7    1.623155   10.304689   11.028448      5.00      14.0067
     143     1 Ga  31    1.623841   10.305308   13.109033     13.00      69.7230
     144     2 N    7    1.623186    8.431683   13.443508      5.00      14.0067
     145     1 Ga  31    9.737555   -0.000030   -0.145809     13.00      69.7230
     146     2 N    7    9.737432    1.873619    0.629433      5.00      14.0067
     147     1 Ga  31    9.737713    1.873565    2.566664     13.00      69.7230
     148     2 N    7    9.737635   -0.000220    3.244326      5.00      14.0067
     149     1 Ga  31    9.737939   -0.000472    5.206742     13.00      69.7230
     150     2 N    7    9.737485    1.873256    5.856390      5.00      14.0067
     151     1 Ga  31    9.737453    1.873116    7.825930     13.00      69.7230
     152     2 N    7    9.737536   -0.000692    8.466802      5.00      14.0067
     153     1 Ga  31    9.738297   -0.001269   10.456183     13.00      69.7230
     154     2 N    7    9.736744    1.873014   11.027543      5.00      14.0067
     155     1 Ga  31    9.737041    1.873739   13.108227     13.00      69.7230
     156     2 N    7    9.737035    0.000181   13.441939      5.00      14.0067
     157     1 Ga  31    8.114675    2.810638   -0.146285     13.00      69.7230
     158     2 N    7    8.114719    4.684374    0.629038      5.00      14.0067
     159     1 Ga  31    8.114841    4.684335    2.566308     13.00      69.7230
     160     2 N    7    8.114924    2.810514    3.243941      5.00      14.0067
     161     1 Ga  31    8.114764    2.810409    5.206322     13.00      69.7230
     162     2 N    7    8.115006    4.684235    5.855823      5.00      14.0067
     163     1 Ga  31    8.114405    4.684608    7.825313     13.00      69.7230
     164     2 N    7    8.115243    2.810784    8.464372      5.00      14.0067
     165     1 Ga  31    8.115209    2.810388   10.452806     13.00      69.7230
     166     2 N    7    8.117596    4.683695   11.027285      5.00      14.0067
     167     1 Ga  31    8.114289    4.683216   13.107214     13.00      69.7230
     168     2 N    7    8.114218    2.809811   13.444942      5.00      14.0067
     169     1 Ga  31    6.491685    5.621611   -0.145772     13.00      69.7230
     170     2 N    7    6.491798    7.495157    0.629747      5.00      14.0067
     171     1 Ga  31    6.492117    7.494977    2.567126     13.00      69.7230
     172     2 N    7    6.492159    5.621053    3.244094      5.00      14.0067
     173     1 Ga  31    6.491561    5.620944    5.206666     13.00      69.7230
     174     2 N    7    6.491723    7.494607    5.856537      5.00      14.0067
     175     1 Ga  31    6.491993    7.494019    7.826166     13.00      69.7230
     176     2 N    7    6.491996    5.619756    8.466090      5.00      14.0067
     177     1 Ga  31    6.491981    5.619330   10.454984     13.00      69.7230
     178     2 N    7    6.491740    7.492766   11.029318      5.00      14.0067
     179     1 Ga  31    6.491782    7.495698   13.108813     13.00      69.7230
     180     2 N    7    6.491719    5.620993   13.438500      5.00      14.0067
     181     1 Ga  31    4.868965    8.432445   -0.145237     13.00      69.7230
     182     2 N    7    4.868948   10.305959    0.630157      5.00      14.0067
     183     1 Ga  31    4.869480   10.305868    2.567505     13.00      69.7230
     184     2 N    7    4.869382    8.432066    3.244634      5.00      14.0067
     185     1 Ga  31    4.869339    8.432274    5.207320     13.00      69.7230
     186     2 N    7    4.869045   10.306229    5.857005      5.00      14.0067
     187     1 Ga  31    4.870238   10.306072    7.826604     13.00      69.7230
     188     2 N    7    4.870130    8.432658    8.466434      5.00      14.0067
     189     1 Ga  31    4.869725    8.431816   10.454957     13.00      69.7230
     190     2 N    7    4.870019   10.305109   11.030303      5.00      14.0067
     191     1 Ga  31    4.868799   10.306383   13.110167     13.00      69.7230
     192     2 N    7    4.869399    8.432205   13.442212      5.00      14.0067
     193     3 H    1    4.868676    8.432378   -1.698278      1.00       1.0079
     194     3 H    1    1.623060    8.432540   -1.699039      1.00       1.0079
     195     3 H    1   -1.622257    8.432480   -1.699261      1.00       1.0079
     196     3 H    1   -4.867959    8.432279   -1.698741      1.00       1.0079
     197     3 H    1    6.491667    5.621771   -1.698843      1.00       1.0079
     198     3 H    1    3.246092    5.621978   -1.698424      1.00       1.0079
     199     3 H    1    0.000452    5.622119   -1.699297      1.00       1.0079
     200     3 H    1   -3.245149    5.621899   -1.699627      1.00       1.0079
     201     3 H    1    8.114291    2.810359   -1.699331      1.00       1.0079
     202     3 H    1    4.868900    2.810411   -1.698444      1.00       1.0079
     203     3 H    1    1.623239    2.810642   -1.698208      1.00       1.0079
     204     3 H    1   -1.622658    2.810505   -1.699075      1.00       1.0079
     205     3 H    1    0.000220   -0.000485   -1.698055      1.00       1.0079
     206     3 H    1    3.246092   -0.000473   -1.698113      1.00       1.0079
     207     3 H    1    6.491624   -0.000465   -1.698978      1.00       1.0079
     208     3 H    1    9.736849   -0.000495   -1.698836      1.00       1.0079




 SCF PARAMETERS         Density guess:                                    ATOMIC
                        --------------------------------------------------------
                        max_scf:                                             100
                        max_scf_history:                                       0
                        max_diis:                                              4
                        --------------------------------------------------------
                        eps_scf:                                        5.00E-06
                        eps_scf_history:                                0.00E+00
                        eps_diis:                                       1.00E-01
                        eps_eigval:                                     1.00E-05
                        --------------------------------------------------------
                        level_shift [a.u.]:                                 0.00
                        --------------------------------------------------------
                        Outer loop SCF in use 
                        No variables optimised in outer loop
                        eps_scf                                         5.00E-06
                        max_scf                                                4
                        No outer loop optimization
                        step_size                                       5.00E-01

 PW_GRID| Information for grid number                                          1
 PW_GRID| Grid distributed over                                    80 processors
 PW_GRID| Real space group dimensions                                    80    1
 PW_GRID| the grid is blocked:                                                NO
 PW_GRID| Cutoff [a.u.]                                                    600.0
 PW_GRID| spherical cutoff:                                                   NO
 PW_GRID|   Bounds   1           -144     143                Points:         288
 PW_GRID|   Bounds   2           -144     143                Points:         288
 PW_GRID|   Bounds   3           -312     312                Points:         625
 PW_GRID| Volume element (a.u.^3)  0.5510E-03     Volume (a.u.^3)     28564.8611
 PW_GRID| Grid span                                                    FULLSPACE
 PW_GRID|   Distribution                         Average         Max         Min
 PW_GRID|   G-Vectors                           648000.0      648000      648000
 PW_GRID|   G-Rays                                2250.0        2250        2250
 PW_GRID|   Real Space Points                   648000.0      720000      540000

 PW_GRID| Information for grid number                                          2
 PW_GRID| Grid distributed over                                    80 processors
 PW_GRID| Real space group dimensions                                    80    1
 PW_GRID| the grid is blocked:                                                NO
 PW_GRID| Cutoff [a.u.]                                                    200.0
 PW_GRID| spherical cutoff:                                                   NO
 PW_GRID|   Bounds   1            -80      79                Points:         160
 PW_GRID|   Bounds   2            -80      79                Points:         160
 PW_GRID|   Bounds   3           -180     179                Points:         360
 PW_GRID| Volume element (a.u.^3)  0.3099E-02     Volume (a.u.^3)     28564.8611
 PW_GRID| Grid span                                                    FULLSPACE
 PW_GRID|   Distribution                         Average         Max         Min
 PW_GRID|   G-Vectors                           115200.0      115360      115040
 PW_GRID|   G-Rays                                 720.0         721         719
 PW_GRID|   Real Space Points                   115200.0      115200      115200

 PW_GRID| Information for grid number                                          3
 PW_GRID| Grid distributed over                                    80 processors
 PW_GRID| Real space group dimensions                                    80    1
 PW_GRID| the grid is blocked:                                                NO
 PW_GRID| Cutoff [a.u.]                                                     66.7
 PW_GRID| spherical cutoff:                                                   NO
 PW_GRID|   Bounds   1            -48      47                Points:          96
 PW_GRID|   Bounds   2            -48      47                Points:          96
 PW_GRID|   Bounds   3           -108     107                Points:         216
 PW_GRID| Volume element (a.u.^3)  0.1435E-01     Volume (a.u.^3)     28564.8611
 PW_GRID| Grid span                                                    FULLSPACE
 PW_GRID|   Distribution                         Average         Max         Min
 PW_GRID|   G-Vectors                            24883.2       25728       23616
 PW_GRID|   G-Rays                                 259.2         268         246
 PW_GRID|   Real Space Points                    24883.2       41472       20736

 PW_GRID| Information for grid number                                          4
 PW_GRID| Grid distributed over                                    80 processors
 PW_GRID| Real space group dimensions                                     8   10
 PW_GRID| the grid is blocked:                                                NO
 PW_GRID| Cutoff [a.u.]                                                     22.2
 PW_GRID| spherical cutoff:                                                   NO
 PW_GRID|   Bounds   1            -27      26                Points:          54
 PW_GRID|   Bounds   2            -27      26                Points:          54
 PW_GRID|   Bounds   3            -60      59                Points:         120
 PW_GRID| Volume element (a.u.^3)  0.8163E-01     Volume (a.u.^3)     28564.8611
 PW_GRID| Grid span                                                    FULLSPACE
 PW_GRID|   Distribution                         Average         Max         Min
 PW_GRID|   G-Vectors                             4374.0        4590        4050
 PW_GRID|   G-Rays                                  81.0          85          75
 PW_GRID|   Real Space Points                     4374.0        5040        3600

 PW_GRID| Information for grid number                                          5
 PW_GRID| Grid distributed over                                    80 processors
 PW_GRID| Real space group dimensions                                     8   10
 PW_GRID| the grid is blocked:                                                NO
 PW_GRID| Cutoff [a.u.]                                                      7.4
 PW_GRID| spherical cutoff:                                                   NO
 PW_GRID|   Bounds   1            -16      15                Points:          32
 PW_GRID|   Bounds   2            -16      15                Points:          32
 PW_GRID|   Bounds   3            -36      35                Points:          72
 PW_GRID| Volume element (a.u.^3)  0.3874         Volume (a.u.^3)     28564.8611
 PW_GRID| Grid span                                                    FULLSPACE
 PW_GRID|   Distribution                         Average         Max         Min
 PW_GRID|   G-Vectors                              921.6        1120         512
 PW_GRID|   G-Rays                                  28.8          35          16
 PW_GRID|   Real Space Points                      921.6        1152         864

 POISSON| Solver                                                        PERIODIC
 POISSON| Periodicity                                                        XYZ

 RS_GRID| Information for grid number                                          1
 RS_GRID|   Bounds   1           -144     143                Points:         288
 RS_GRID|   Bounds   2           -144     143                Points:         288
 RS_GRID|   Bounds   3           -312     312                Points:         625
 RS_GRID| Real space distribution over                                  5 groups
 RS_GRID| Real space distribution along direction                              2
 RS_GRID| Border size                                                         79
 RS_GRID| Real space distribution over                                 16 groups
 RS_GRID| Real space distribution along direction                              3
 RS_GRID| Border size                                                         79
 RS_GRID|   Distribution                         Average         Max         Min
 RS_GRID|   Planes                                 215.6         216         215
 RS_GRID|   Distribution                         Average         Max         Min
 RS_GRID|   Planes                                 197.1         198         197

 RS_GRID| Information for grid number                                          2
 RS_GRID|   Bounds   1            -80      79                Points:         160
 RS_GRID|   Bounds   2            -80      79                Points:         160
 RS_GRID|   Bounds   3           -180     179                Points:         360
 RS_GRID| Real space distribution over                                  5 groups
 RS_GRID| Real space distribution along direction                              2
 RS_GRID| Border size                                                         45
 RS_GRID| Real space distribution over                                 16 groups
 RS_GRID| Real space distribution along direction                              3
 RS_GRID| Border size                                                         45
 RS_GRID|   Distribution                         Average         Max         Min
 RS_GRID|   Planes                                 122.0         122         122
 RS_GRID|   Distribution                         Average         Max         Min
 RS_GRID|   Planes                                 112.5         113         112

 RS_GRID| Information for grid number                                          3
 RS_GRID|   Bounds   1            -48      47                Points:          96
 RS_GRID|   Bounds   2            -48      47                Points:          96
 RS_GRID|   Bounds   3           -108     107                Points:         216
 RS_GRID| Real space fully replicated
 RS_GRID| Group size                                                           1

 RS_GRID| Information for grid number                                          4
 RS_GRID|   Bounds   1            -27      26                Points:          54
 RS_GRID|   Bounds   2            -27      26                Points:          54
 RS_GRID|   Bounds   3            -60      59                Points:         120
 RS_GRID| Real space fully replicated
 RS_GRID| Group size                                                           1

 RS_GRID| Information for grid number                                          5
 RS_GRID|   Bounds   1            -16      15                Points:          32
 RS_GRID|   Bounds   2            -16      15                Points:          32
 RS_GRID|   Bounds   3            -36      35                Points:          72
 RS_GRID| Real space fully replicated
 RS_GRID| Group size                                                           1

 CELL_OPT| Pressure tolerance [bar]:                                       500.0
 CELL_OPT| Keep angles between the cell vectors:                             YES
 CELL_OPT| Keep cell symmetry:                                               YES
 CELL_OPT| Constraint:                                                         Z

 BFGS| Use rational function optimization for step estimation:                NO
 BFGS| Use model Hessian for initial guess:                                   NO
 BFGS| Restart Hessian:                                                       NO
 BFGS| Trust radius:                                                       0.472

 *******************************************************************************
 ***                     STARTING   CELL   OPTIMIZATION                      ***
 ***                                   BFGS                                  ***
 *******************************************************************************

 CELL| Volume [angstrom^3]:                                             4232.876
 CELL| Vector a [angstrom]:      12.982     0.000     0.000    |a| =      12.982
 CELL| Vector b [angstrom]:      -6.491    11.243     0.000    |b| =      12.982
 CELL| Vector c [angstrom]:       0.000     0.000    29.000    |c| =      29.000
 CELL| Angle (b,c), alpha [degree]:                                       90.000
 CELL| Angle (a,c), beta  [degree]:                                       90.000
 CELL| Angle (a,b), gamma [degree]:                                      120.000
 CELL| Numerically orthorhombic:                                              NO

 -------------------------------------------------------------------------------
 ----                             MULTIGRID INFO                            ----
 -------------------------------------------------------------------------------
 count for grid        1:         331200          cutoff [a.u.]          600.00
 count for grid        2:        1048800          cutoff [a.u.]          200.00
 count for grid        3:         676400          cutoff [a.u.]           66.67
 count for grid        4:         444000          cutoff [a.u.]           22.22
 count for grid        5:         222000          cutoff [a.u.]            7.41
 total gridlevel count  :        2722400

 PW_GRID| Information for grid number                                          6
 PW_GRID| Grid distributed over                                    80 processors
 PW_GRID| Real space group dimensions                                    80    1
 PW_GRID| the grid is blocked:                                                NO
 PW_GRID| Cutoff [a.u.]                                                    600.0
 PW_GRID| spherical cutoff:                                                   NO
 PW_GRID|   Bounds   1           -144     143                Points:         288
 PW_GRID|   Bounds   2           -144     143                Points:         288
 PW_GRID|   Bounds   3           -312     312                Points:         625
 PW_GRID| Volume element (a.u.^3)  0.5510E-03     Volume (a.u.^3)     28564.8611
 PW_GRID| Grid span                                                    FULLSPACE
 PW_GRID|   Distribution                         Average         Max         Min
 PW_GRID|   G-Vectors                           648000.0      648000      648000
 PW_GRID|   G-Rays                                2250.0        2250        2250
 PW_GRID|   Real Space Points                   648000.0      720000      540000

 PW_GRID| Information for grid number                                          7
 PW_GRID| Grid distributed over                                    80 processors
 PW_GRID| Real space group dimensions                                    80    1
 PW_GRID| the grid is blocked:                                                NO
 PW_GRID| Cutoff [a.u.]                                                    200.0
 PW_GRID| spherical cutoff:                                                   NO
 PW_GRID|   Bounds   1            -80      79                Points:         160
 PW_GRID|   Bounds   2            -80      79                Points:         160
 PW_GRID|   Bounds   3           -180     179                Points:         360
 PW_GRID| Volume element (a.u.^3)  0.3099E-02     Volume (a.u.^3)     28564.8611
 PW_GRID| Grid span                                                    FULLSPACE
 PW_GRID|   Distribution                         Average         Max         Min
 PW_GRID|   G-Vectors                           115200.0      115360      115040
 PW_GRID|   G-Rays                                 720.0         721         719
 PW_GRID|   Real Space Points                   115200.0      115200      115200

 PW_GRID| Information for grid number                                          8
 PW_GRID| Grid distributed over                                    80 processors
 PW_GRID| Real space group dimensions                                    80    1
 PW_GRID| the grid is blocked:                                                NO
 PW_GRID| Cutoff [a.u.]                                                     66.7
 PW_GRID| spherical cutoff:                                                   NO
 PW_GRID|   Bounds   1            -48      47                Points:          96
 PW_GRID|   Bounds   2            -48      47                Points:          96
 PW_GRID|   Bounds   3           -108     107                Points:         216
 PW_GRID| Volume element (a.u.^3)  0.1435E-01     Volume (a.u.^3)     28564.8611
 PW_GRID| Grid span                                                    FULLSPACE
 PW_GRID|   Distribution                         Average         Max         Min
 PW_GRID|   G-Vectors                            24883.2       25728       23616
 PW_GRID|   G-Rays                                 259.2         268         246
 PW_GRID|   Real Space Points                    24883.2       41472       20736

 PW_GRID| Information for grid number                                          9
 PW_GRID| Grid distributed over                                    80 processors
 PW_GRID| Real space group dimensions                                     8   10
 PW_GRID| the grid is blocked:                                                NO
 PW_GRID| Cutoff [a.u.]                                                     22.2
 PW_GRID| spherical cutoff:                                                   NO
 PW_GRID|   Bounds   1            -27      26                Points:          54
 PW_GRID|   Bounds   2            -27      26                Points:          54
 PW_GRID|   Bounds   3            -60      59                Points:         120
 PW_GRID| Volume element (a.u.^3)  0.8163E-01     Volume (a.u.^3)     28564.8611
 PW_GRID| Grid span                                                    FULLSPACE
 PW_GRID|   Distribution                         Average         Max         Min
 PW_GRID|   G-Vectors                             4374.0        4590        4050
 PW_GRID|   G-Rays                                  81.0          85          75
 PW_GRID|   Real Space Points                     4374.0        5040        3600

 PW_GRID| Information for grid number                                         10
 PW_GRID| Grid distributed over                                    80 processors
 PW_GRID| Real space group dimensions                                     8   10
 PW_GRID| the grid is blocked:                                                NO
 PW_GRID| Cutoff [a.u.]                                                      7.4
 PW_GRID| spherical cutoff:                                                   NO
 PW_GRID|   Bounds   1            -16      15                Points:          32
 PW_GRID|   Bounds   2            -16      15                Points:          32
 PW_GRID|   Bounds   3            -36      35                Points:          72
 PW_GRID| Volume element (a.u.^3)  0.3874         Volume (a.u.^3)     28564.8611
 PW_GRID| Grid span                                                    FULLSPACE
 PW_GRID|   Distribution                         Average         Max         Min
 PW_GRID|   G-Vectors                              921.6        1120         512
 PW_GRID|   G-Rays                                  28.8          35          16
 PW_GRID|   Real Space Points                      921.6        1152         864

 POISSON| Solver                                                        PERIODIC
 POISSON| Periodicity                                                        XYZ

 RS_GRID| Information for grid number                                          6
 RS_GRID|   Bounds   1           -144     143                Points:         288
 RS_GRID|   Bounds   2           -144     143                Points:         288
 RS_GRID|   Bounds   3           -312     312                Points:         625
 RS_GRID| Real space distribution over                                  5 groups
 RS_GRID| Real space distribution along direction                              2
[...]
 flops   224 x    64 x    64        2939424079872     100.0%      0.0%      0.0%
 flops   944 x    32 x    64        2972536799232     100.0%      0.0%      0.0%
 flops   944 x    64 x    32        2972536799232     100.0%      0.0%      0.0%
 flops    25 x    13 x    32        3052372377600     100.0%      0.0%      0.0%
 flops    13 x    25 x    32        3117015033600     100.0%      0.0%      0.0%
 flops   936 x    64 x   170        3145698017280     100.0%      0.0%      0.0%
 flops   912 x    64 x    64        3350401646592     100.0%      0.0%      0.0%
 flops   944 x    64 x    64        3467959599104     100.0%      0.0%      0.0%
 flops    25 x    13 x    64        3561101107200     100.0%      0.0%      0.0%
 flops    13 x    25 x    64        3636517539200     100.0%      0.0%      0.0%
 flops   936 x    32 x    32        5052592816128     100.0%      0.0%      0.0%
 flops   936 x    64 x    32        5894691618816     100.0%      0.0%      0.0%
 flops   936 x    32 x    64        5894691618816     100.0%      0.0%      0.0%
 flops    25 x    25 x    32        6025236480000     100.0%      0.0%      0.0%
 flops   936 x    64 x    64        6877140221952     100.0%      0.0%      0.0%
 flops    25 x    25 x    64        7029442560000     100.0%      0.0%      0.0%
 flops    13 x    32 x    13       11448476762112     100.0%      0.0%      0.0%
 flops    13 x    32 x    25       23190121281600     100.0%      0.0%      0.0%
 flops    25 x    32 x    13       23190121281600     100.0%      0.0%      0.0%
 flops    25 x    32 x    25       44829573120000     100.0%      0.0%      0.0%
 flops inhomo. stacks              69590354729984     100.0%      0.0%      0.0%
 flops total                       320.907500E+12     100.0%      0.0%      0.0%
 flops max/rank                      5.786351E+12     100.0%      0.0%      0.0%
 matmuls inhomo. stacks                   8249120     100.0%      0.0%      0.0%
 matmuls total                         6481898996     100.0%      0.0%      0.0%
 number of processed stacks             142572252     100.0%      0.0%      0.0%
 average stack size                                    45.5       0.0       0.0
 marketing flops                   345.808587E+12
 -------------------------------------------------------------------------------
 # multiplications                          36737
 max memory usage/rank               1.308652E+09
 # max total images/rank                        5
 # max 3D layers                                1
 # MPI messages exchanged               335041440
 MPI messages size (bytes):
  total size                        36.157501E+12
  min size                           0.000000E+00
  max size                           1.706752E+06
  average size                     107.919492E+03
 MPI breakdown and total messages size (bytes):
             size <=      128              931380                        0
       128 < size <=     8192            54867060             449470955520
      8192 < size <=    32768            97527000            1867999841280
     32768 < size <=   131072           142525840            9449069182464
    131072 < size <=  4194304            39190160           24382199918784
   4194304 < size <= 16777216                   0                        0
  16777216 < size                               0                        0
 -------------------------------------------------------------------------------

 *** WARNING in dbcsr/mm/dbcsr_mm.F:268 :: Using a non-square number of ***
 *** MPI ranks might lead to poor performance.                          ***
 *** Used ranks: 80                                                     ***
 *** Suggested: 81 169                                                  ***

 -------------------------------------------------------------------------------
 
 MEMORY| Estimated peak process memory [MiB]                                1267

 -------------------------------------------------------------------------------
 ----                             MULTIGRID INFO                            ----
 -------------------------------------------------------------------------------
 count for grid        1:         337536          cutoff [a.u.]          600.00
 count for grid        2:        1213026          cutoff [a.u.]          200.00
 count for grid        3:         844994          cutoff [a.u.]           66.67
 count for grid        4:         726462          cutoff [a.u.]           22.22
 count for grid        5:         504388          cutoff [a.u.]            7.41
 total gridlevel count  :        3626406

 -------------------------------------------------------------------------------
 -                                                                             -
 -                         MESSAGE PASSING PERFORMANCE                         -
 -                                                                             -
 -------------------------------------------------------------------------------

 ROUTINE             CALLS      AVE VOLUME [Bytes]
 MP_Group             2107
 MP_Bcast            44307                   6425.
 MP_Allreduce       312225                    766.
 MP_Sync              1401
 MP_Alltoall        176305                6353284.
 MP_SendRecv         16116                   6086.
 MP_ISendRecv       952266                 127104.
 MP_Wait           8209306
 MP_comm_split        1141
 MP_ISend          9422594                 108109.
 MP_IRecv          9422594                 107437.
 MP_Recv               950                 161280.
 MP_Memory         4156506
 -------------------------------------------------------------------------------


 -------------------------------------------------------------------------------
 -                                                                             -
 -                           R E F E R E N C E S                               -
 -                                                                             -
 -------------------------------------------------------------------------------
 
 CP2K version 7.0 (Development Version), the CP2K developers group (2018).
 CP2K is freely available from https://www.cp2k.org/ .

 Schuett, Ole; Messmer, Peter; Hutter, Juerg; VandeVondele, Joost. 
 Electronic Structure Calculations on Graphics Processing Units, John Wiley & Sons, Ltd, 173-190 (2016). 
 GPU-Accelerated Sparse Matrix-Matrix Multiplication for Linear Scaling Density Functional Theory.
 http://dx.doi.org/10.1002/9781118670712.ch8


 Borstnik, U; VandeVondele, J; Weber, V; Hutter, J. 
 PARALLEL COMPUTING, 40 (5-6), 47-58 (2014). 
 Sparse matrix multiplication: The distributed block-compressed sparse
 row library.
 http://dx.doi.org/10.1016/j.parco.2014.03.012


 Hutter, J; Iannuzzi, M; Schiffmann, F; VandeVondele, J. 
 WILEY INTERDISCIPLINARY REVIEWS-COMPUTATIONAL MOLECULAR SCIENCE, 4 (1), 15-25 (2014). 
 CP2K: atomistic simulations of condensed matter systems.
 http://dx.doi.org/10.1002/wcms.1159


 Grimme, S; Ehrlich, S; Goerigk, L. 
 JOURNAL OF COMPUTATIONAL CHEMISTRY, 32, 1456 (2011). 
 Effect of the damping function in dispersion corrected density functional theory.
 http://dx.doi.org/10.1002/jcc.21759


 Grimme, S; Antony, J; Ehrlich, S; Krieg, H. 
 JOURNAL OF CHEMICAL PHYSICS, 132 (15), 154104 (2010). 
 A consistent and accurate ab initio parametrization of density
 functional dispersion correction (DFT-D) for the 94 elements H-Pu.
 http://dx.doi.org/10.1063/1.3382344


 VandeVondele, J; Hutter, J. 
 JOURNAL OF CHEMICAL PHYSICS, 127 (11), 114105 (2007). 
 Gaussian basis sets for accurate calculations on molecular systems in
 gas and condensed phases.
 http://dx.doi.org/10.1063/1.2770708


 Krack, M. 
 THEORETICAL CHEMISTRY ACCOUNTS, 114 (1-3), 145-152 (2005). 
 Pseudopotentials for H to Kr optimized for gradient-corrected
 exchange-correlation functionals.
 http://dx.doi.org/10.1007/s00214-005-0655-y


 VandeVondele, J; Krack, M; Mohamed, F; Parrinello, M; Chassaing, T;
 Hutter, J. COMPUTER PHYSICS COMMUNICATIONS, 167 (2), 103-128 (2005). 
 QUICKSTEP: Fast and accurate density functional calculations using a
 mixed Gaussian and plane waves approach.
 http://dx.doi.org/10.1016/j.cpc.2004.12.014


 Frigo, M; Johnson, SG. 
 PROCEEDINGS OF THE IEEE, 93 (2), 216-231 (2005). 
 The design and implementation of FFTW3.
 http://dx.doi.org/10.1109/JPROC.2004.840301


 Kolafa, J. 
 JOURNAL OF COMPUTATIONAL CHEMISTRY, 25 (3), 335-342 (2004). 
 Time-reversible always stable predictor-corrector method for molecular dynamics of polarizable molecules.
 http://dx.doi.org/10.1002/jcc.10385


 VandeVondele, J; Hutter, J. 
 JOURNAL OF CHEMICAL PHYSICS, 118 (10), 4365-4369 (2003). 
 An efficient orbital transformation method for electronic structure
 calculations.
 http://dx.doi.org/10.1063/1.1543154


 Hartwigsen, C; Goedecker, S; Hutter, J. 
 PHYSICAL REVIEW B, 58 (7), 3641-3662 (1998). 
 Relativistic separable dual-space Gaussian pseudopotentials from H to Rn.
 http://dx.doi.org/10.1103/PhysRevB.58.3641


 Lippert, G; Hutter, J; Parrinello, M. 
 MOLECULAR PHYSICS, 92 (3), 477-487 (1997). 
 A hybrid Gaussian and plane wave density functional scheme.
 http://dx.doi.org/10.1080/002689797170220


 Perdew, JP; Burke, K; Ernzerhof, M. 
 PHYSICAL REVIEW LETTERS, 77 (18), 3865-3868 (1996). 
 Generalized gradient approximation made simple.
 http://dx.doi.org/10.1103/PhysRevLett.77.3865


 Goedecker, S; Teter, M; Hutter, J. 
 PHYSICAL REVIEW B, 54 (3), 1703-1710 (1996). 
 Separable dual-space Gaussian pseudopotentials.
 http://dx.doi.org/10.1103/PhysRevB.54.1703


 -------------------------------------------------------------------------------
 -                                                                             -
 -                                T I M I N G                                  -
 -                                                                             -
 -------------------------------------------------------------------------------
 SUBROUTINE                       CALLS  ASD         SELF TIME        TOTAL TIME
                                MAXIMUM       AVERAGE  MAXIMUM  AVERAGE  MAXIMUM
 CP2K                                 1  1.0     0.19     0.21 17030.37 17030.40
 cp_cell_opt                          1  2.0     0.05     0.06 17028.91 17028.94
 geoopt_bfgs                          1  3.0     0.17     0.23 17028.86 17028.93
 cp_eval_at                          52  4.0     0.11     0.14 16988.93 16989.01
 qs_forces                           51  5.0     0.06     0.12 16607.48 16607.49
 qs_energies                         52  6.0     0.08     0.13 16346.04 16346.20
 scf_env_do_scf                      52  7.0     0.07     0.14 15917.09 15917.14
 scf_env_do_scf_inner_loop         2593  8.0     0.20     0.37 15308.68 15308.72
 rebuild_ks_matrix                 2644  9.9     0.01     0.03  7547.84  7551.05
 qs_ks_build_kohn_sham_matrix      2644 10.9     0.66     1.34  7547.83  7551.04
 qs_ks_update_qs_env               2650  9.0     0.02     0.03  7057.61  7060.79
 qs_rho_update_rho                 2645  9.0     0.03     0.05  6548.02  6556.66
 calculate_rho_elec                2645 10.0  3351.38  3416.23  6547.99  6556.63
 pw_transfer                      45516 13.3     4.94     5.61  3859.48  3879.20
 fft_wrap_pw1pw2                  40228 14.4     0.48     0.53  3822.87  3842.25
 sum_up_and_integrate              1373 11.9     9.83    11.17  3833.13  3833.97
 integrate_v_rspace                1373 12.9  2035.39  2110.14  3823.30  3825.70
 fft_wrap_pw1pw2_600              24156 15.6   237.73   266.56  3566.01  3587.31
 fft3d_ps                         40228 16.4  1047.76  1138.13  3238.08  3256.30
 rs_pw_transfer                   20297 13.0     0.29     0.51  3174.44  3222.89
 density_rs2pw                     2645 11.0     0.19     0.29  2887.60  2944.86
 qs_vxc_create                     2644 11.9     0.08     0.10  2546.38  2547.52
 dbcsr_multiply_generic           36737 13.8     2.42     3.24  2259.74  2265.16
 mp_waitall_1                   7467436 16.7  2116.02  2226.22  2116.02  2226.22
 qs_scf_new_mos                    2593  9.0     0.03     0.05  2122.85  2127.55
 qs_scf_loop_do_ot                 2593 10.0     0.10     0.25  2122.82  2127.53
 mp_alltoall_z22v                 40228 18.4  1869.43  2039.25  1869.43  2039.25
 ot_scf_mini                       2593 11.0     0.18     0.29  1936.57  1939.92
 xc_vxc_pw_create                  1373 12.9    72.97    84.21  1786.12  1786.69
 multiply_cannon                  36737 14.8    11.61    12.24  1738.14  1776.63
 mp_waitany                      741870 14.9  1444.50  1586.69  1444.50  1586.69
 xc_rho_set_and_dset_create        2644 13.9    11.61    12.35  1438.23  1471.96
 potential_pw2rs                   1373 13.9     0.99     1.13  1430.72  1432.96
 rs_pw_transfer_RS2PW_600          2749 12.9   480.39   528.04  1365.19  1412.45
 x_to_yz                          18713 17.9   192.34   219.15  1308.68  1349.52
 multiply_cannon_metrocomm3      734740 15.8     1.98     2.10  1040.98  1168.47
 ot_mini                           2593 12.0     0.02     0.03  1001.93  1005.23
 yz_to_x                          13479 16.9   100.79   107.00   852.03   939.44
 rs_pw_transfer_PW2RS_600          1476 15.6   297.40   316.63   858.58   865.08
 xc_exc_calc                       1271 13.0     5.72     6.41   760.18   760.85
 qs_ot_get_derivative              1322 13.0     0.02     0.03   628.24   631.34
 init_scf_loop                       57  8.0     0.01     0.03   607.34   607.36
 calc_dipsurf_potential            2644 11.9    46.61    51.13   530.62   546.58
 mp_alltoall_d11v                 26963 15.6   445.53   507.92   445.53   507.92
 qs_ks_update_qs_env_forces          51  6.0     0.00     0.00   507.26   507.38
 multiply_cannon_metrocomm1      734740 15.8     2.21     2.36   381.90   498.30
 rs_distribute_matrix              4069 12.0     4.62     9.76   431.19   495.48
 mp_sum_d                         51364 14.4   339.80   417.01   339.80   417.01
 qs_ot_get_p                       2650 11.9     0.05     0.11   368.72   374.49
 apply_preconditioner_dbcsr        1379 14.0     0.00     0.01   369.20   370.93
 apply_all                         1379 15.0     0.15     0.23   369.19   370.93
 ot_new_cg_direction               1322 13.0     0.02     0.05   366.54   366.69
 -------------------------------------------------------------------------------

 The number of warnings for this run is : 2
 
 -------------------------------------------------------------------------------
  **** **** ******  **  PROGRAM ENDED AT                 2019-05-26 01:06:07.366
 ***** ** ***  *** **   PROGRAM RAN ON            blg9114.int.ets1.calculquebec.
 **    ****   ******    PROGRAM RAN BY                                       rzk
 ***** **    ** ** **   PROGRAM PROCESS ID                                 95635
  **** **  *******  **  PROGRAM STOPPED IN /lustre03/project/6004141/rzk/GaN-car
                                           bene/00-Surface/00-Preoptimization/44
                                           3-capped/CELL_OPT
[1558847168.018473] [blg9114:95636:0]          mpool.c:38   UCX  WARN  object 0x59b0a80 was not returned to mpool ucp_requests
[1558847168.018530] [blg9114:95636:0]          mpool.c:38   UCX  WARN  object 0x5815a40 was not returned to mpool ucp_requests
[1558847168.018532] [blg9114:95636:0]          mpool.c:38   UCX  WARN  object 0x5816bc0 was not returned to mpool ucp_requests
[1558847168.018533] [blg9114:95636:0]          mpool.c:38   UCX  WARN  object 0x5818440 was not returned to mpool ucp_requests
[1558847168.047523] [blg9114:95635:0]          mpool.c:38   UCX  WARN  object 0x595fec0 was not returned to mpool ucp_requests
[1558847168.047582] [blg9114:95635:0]          mpool.c:38   UCX  WARN  object 0x5965d40 was not returned to mpool ucp_requests
[1558847168.047583] [blg9114:95635:0]          mpool.c:38   UCX  WARN  object 0x57ecc40 was not returned to mpool ucp_requests
[1558847168.047585] [blg9114:95635:0]          mpool.c:38   UCX  WARN  object 0x57f6f00 was not returned to mpool ucp_requests
[1558847168.034029] [blg9114:95638:0]          mpool.c:38   UCX  WARN  object 0x5f28900 was not returned to mpool ucp_requests
[1558847168.034078] [blg9114:95638:0]          mpool.c:38   UCX  WARN  object 0x5f2c800 was not returned to mpool ucp_requests
[1558847168.034080] [blg9114:95638:0]          mpool.c:38   UCX  WARN  object 0x5f2eb00 was not returned to mpool ucp_requests
[1558847168.039615] [blg9114:95648:0]          mpool.c:38   UCX  WARN  object 0x5892800 was not returned to mpool ucp_requests
[1558847168.039666] [blg9114:95648:0]          mpool.c:38   UCX  WARN  object 0x58929c0 was not returned to mpool ucp_requests
[1558847168.039668] [blg9114:95648:0]          mpool.c:38   UCX  WARN  object 0x574adc0 was not returned to mpool ucp_requests
[1558847168.048424] [blg9114:95646:0]          mpool.c:38   UCX  WARN  object 0x6319b80 was not returned to mpool ucp_requests
[1558847168.048480] [blg9114:95646:0]          mpool.c:38   UCX  WARN  object 0x60b1680 was not returned to mpool ucp_requests
[1558847168.088622] [blg9114:95639:0]          mpool.c:38   UCX  WARN  object 0x5d15000 was not returned to mpool ucp_requests
[1558847168.075153] [blg9114:95641:0]          mpool.c:38   UCX  WARN  object 0x5a659c0 was not returned to mpool ucp_requests
[1558847168.094208] [blg9114:95644:0]          mpool.c:38   UCX  WARN  object 0x5e24cc0 was not returned to mpool ucp_requests
[1558847168.070047] [blg9114:95637:0]          mpool.c:38   UCX  WARN  object 0x5721c80 was not returned to mpool ucp_requests
[1558847168.070167] [blg9114:95637:0]          mpool.c:38   UCX  WARN  object 0x55d0e40 was not returned to mpool ucp_requests
[1558847168.070169] [blg9114:95637:0]          mpool.c:38   UCX  WARN  object 0x55dad80 was not returned to mpool ucp_requests
[1558847168.070170] [blg9114:95637:0]          mpool.c:38   UCX  WARN  object 0x55dd240 was not returned to mpool ucp_requests
[1558847168.076366] [blg9114:95649:0]          mpool.c:38   UCX  WARN  object 0x66bd380 was not returned to mpool ucp_requests
[1558847168.076419] [blg9114:95649:0]          mpool.c:38   UCX  WARN  object 0x65723c0 was not returned to mpool ucp_requests
[1558847168.076421] [blg9114:95649:0]          mpool.c:38   UCX  WARN  object 0x657f400 was not returned to mpool ucp_requests
[1558847168.074395] [blg9114:95650:0]          mpool.c:38   UCX  WARN  object 0x5978580 was not returned to mpool ucp_requests
[1558847168.074453] [blg9114:95650:0]          mpool.c:38   UCX  WARN  object 0x597d0c0 was not returned to mpool ucp_requests
[1558847168.083820] [blg9114:95645:0]          mpool.c:38   UCX  WARN  object 0x63d0d40 was not returned to mpool ucp_requests
[1558847168.083880] [blg9114:95645:0]          mpool.c:38   UCX  WARN  object 0x62b0cc0 was not returned to mpool ucp_requests
[1558847168.083882] [blg9114:95645:0]          mpool.c:38   UCX  WARN  object 0x62b5f00 was not returned to mpool ucp_requests
[1558847168.076829] [blg9114:95640:0]          mpool.c:38   UCX  WARN  object 0x5af8f40 was not returned to mpool ucp_requests
[1558847168.089398] [blg9114:95643:0]          mpool.c:38   UCX  WARN  object 0x6274840 was not returned to mpool ucp_requests
[1558847168.089457] [blg9114:95643:0]          mpool.c:38   UCX  WARN  object 0x6033600 was not returned to mpool ucp_requests
[1558847168.084051] [blg9114:95647:0]          mpool.c:38   UCX  WARN  object 0x65eea80 was not returned to mpool ucp_requests
[1558847168.084108] [blg9114:95647:0]          mpool.c:38   UCX  WARN  object 0x64c2380 was not returned to mpool ucp_requests
[1558847168.097672] [blg9114:95642:0]          mpool.c:38   UCX  WARN  object 0x562d400 was not returned to mpool ucp_requests
[1558847168.097731] [blg9114:95642:0]          mpool.c:38   UCX  WARN  object 0x54e8200 was not returned to mpool ucp_requests
