     208
 i =        1, E =     -8127.3229344932
 Ga         0.0006007603        0.0001057206       -0.1445977367
  N         0.0005535744        1.8685980191        0.6295717733
 Ga         0.0010794115        1.8686953647        2.5675924477
  N         0.0008132335       -0.0002788736        3.2447048166
 Ga         0.0010250625        0.0001676480        5.2078055122
  N         0.0005608339        1.8691399743        5.8564725495
 Ga         0.0016516531        1.8691922053        7.8273184727
  N         0.0016796296        0.0005417666        8.4662313546
 Ga         0.0009373139        0.0005726693       10.4564465167
  N        -0.0011784491        1.8697297393       11.0288311764
 Ga        -0.0010616058        1.8692294490       13.1078965509
  N         0.0004903127        0.0005358098       13.4415035854
 Ga        -1.6178601838        2.8035480340       -0.1456129652
  N        -1.6179501539        4.6720816975        0.6286537056
 Ga        -1.6176425364        4.6721652208        2.5664183023
  N        -1.6178215728        2.8033350910        3.2438842664
 Ga        -1.6175632169        2.8027832051        5.2069049449
  N        -1.6178705979        4.6722599493        5.8551206799
 Ga        -1.6181906309        4.6723519737        7.8261170753
  N        -1.6187289832        2.8031886511        8.4644543500
 Ga        -1.6185024146        2.8030210131       10.4544680274
  N        -1.6189948072        4.6722601743       11.0274136787
 Ga        -1.6184275262        4.6721697846       13.1076625418
  N        -1.6184711252        2.8033114212       13.4439437228
 Ga        -3.2364989901        5.6071725447       -0.1461769308
  N        -3.2364642384        7.4755912046        0.6288714874
 Ga        -3.2362157895        7.4757361470        2.5667869680
  N        -3.2361903798        5.6066745723        3.2432413569
 Ga        -3.2366041117        5.6067515621        5.2061262363
  N        -3.2362709760        7.4757525403        5.8552666728
 Ga        -3.2365536193        7.4763850032        7.8262149495
  N        -3.2361714777        5.6072829984        8.4632960912
 Ga        -3.2358746463        5.6085027220       10.4535834625
  N        -3.2355329982        7.4781383298       11.0273251565
 Ga        -3.2370200871        7.4751516218       13.1074039082
  N        -3.2377342135        5.6069352269       13.4427979666
 Ga        -4.8552128249        8.4106754717       -0.1452677812
  N        -4.8551583862       10.2789294854        0.6298053128
 Ga        -4.8547949211       10.2790827064        2.5678105435
  N        -4.8549097755        8.4099534730        3.2440863403
 Ga        -4.8552019718        8.4103500988        5.2070783537
  N        -4.8552951193       10.2789615667        5.8563039976
 Ga        -4.8553006992       10.2789609842        7.8270709014
  N        -4.8555093051        8.4094336352        8.4651683007
 Ga        -4.8558366175        8.4088885082       10.4553521607
  N        -4.8558394418       10.2777642110       11.0306764035
 Ga        -4.8558472774       10.2784030873       13.1102970255
  N        -4.8551997130        8.4093608289       13.4426760207
 Ga         3.2376447473        0.0000831892       -0.1446424558
  N         3.2376805353        1.8686098885        0.6297927313
 Ga         3.2380414230        1.8685898593        2.5677060779
  N         3.2380168070       -0.0003549841        3.2444406321
 Ga         3.2376129727       -0.0003519936        5.2074781792
  N         3.2378238546        1.8685078540        5.8565564572
 Ga         3.2370438937        1.8683017336        7.8277168068
  N         3.2377877842       -0.0017214298        8.4661091085
 Ga         3.2368925850       -0.0012718470       10.4563497312
  N         3.2351511135        1.8668029156       11.0306776282
 Ga         3.2378316576        1.8678393248       13.1100907857
  N         3.2383242834       -0.0016047299       13.4418332834
 Ga         1.6190731872        2.8035435937       -0.1447388263
  N         1.6190602783        4.6721437335        0.6292773653
 Ga         1.6195754224        4.6721230356        2.5672443324
  N         1.6194820250        2.8032689361        3.2445373287
 Ga         1.6192008402        2.8033349285        5.2078059422
  N         1.6193553680        4.6726708783        5.8561898179
 Ga         1.6200523577        4.6721002087        7.8273823609
  N         1.6196518547        2.8036763822        8.4656349352
 Ga         1.6190936634        2.8032817694       10.4557514537
  N         1.6195598196        4.6727346321       11.0298072350
 Ga         1.6179924720        4.6730800665       13.1087110934
  N         1.6183750069        2.8036872497       13.4380223441
 Ga         0.0005265777        5.6071645237       -0.1458613198
  N         0.0005730778        7.4755771525        0.6289147590
 Ga         0.0009067360        7.4757176882        2.5669080439
  N         0.0007059159        5.6066155123        3.2435796441
 Ga         0.0011877299        5.6065877716        5.2065055217
  N         0.0009673435        7.4754769206        5.8554196543
 Ga         0.0005884115        7.4756424703        7.8261402856
  N         0.0004048872        5.6065950476        8.4647069946
 Ga         0.0016151189        5.6069130608       10.4554770600
  N        -0.0001422481        7.4766053469       11.0271018218
 Ga         0.0005600334        7.4755556053       13.1075242202
  N        -0.0000694962        5.6067272176       13.4418596264
 Ga        -1.6180369103        8.4106895389       -0.1457495447
  N        -1.6179416771       10.2790057759        0.6294698915
 Ga        -1.6176766436       10.2791820927        2.5674196258
  N        -1.6177223259        8.4101303457        3.2436573515
 Ga        -1.6174810604        8.4104470453        5.2066218689
  N        -1.6174913793       10.2794286137        5.8556249738
 Ga        -1.6181002689       10.2799398575        7.8263485288
  N        -1.6171704696        8.4105889299        8.4632023953
 Ga        -1.6174194815        8.4103333079       10.4528579825
  N        -1.6166435876       10.2793715713       11.0290559808
 Ga        -1.6180560022       10.2780540923       13.1092247194
  N        -1.6184397442        8.4088885782       13.4446709512
 Ga         6.4748474261        0.0001635224       -0.1455425750
  N         6.4748383763        1.8685804345        0.6292439899
 Ga         6.4750802217        1.8686617510        2.5670488284
  N         6.4752129278       -0.0001986155        3.2440059386
 Ga         6.4752327430       -0.0001763560        5.2068973404
  N         6.4751050951        1.8686858380        5.8559147616
 Ga         6.4747142644        1.8690853639        7.8269794610
  N         6.4757063010       -0.0001381040        8.4646866366
 Ga         6.4758581176        0.0014441220       10.4554637057
  N         6.4751147134        1.8704877986       11.0280057813
 Ga         6.4754701511        1.8675102303       13.1076333899
  N         6.4748263783       -0.0008009230       13.4410447884
 Ga         4.8560461823        2.8035059329       -0.1450331089
  N         4.8561717107        4.6720855887        0.6293171750
 Ga         4.8564884613        4.6720683487        2.5672756497
  N         4.8565268264        2.8030656208        3.2443225252
 Ga         4.8561276900        2.8030514374        5.2073087032
  N         4.8560931823        4.6718162734        5.8560505847
 Ga         4.8560944283        4.6713489996        7.8269316044
  N         4.8558802202        2.8019484097        8.4654444178
 Ga         4.8546782436        2.8013373258       10.4561623111
  N         4.8558052019        4.6715174228       11.0296844954
 Ga         4.8553236495        4.6712243778       13.1093306943
  N         4.8566038449        2.8019882417       13.4403419232
 Ga         3.2374522328        5.6072447279       -0.1449601940
  N         3.2375182810        7.4755991561        0.6294593994
 Ga         3.2380177631        7.4756603189        2.5673940878
  N         3.2379400700        5.6067294236        3.2442079014
 Ga         3.2379365018        5.6067358230        5.2073168212
  N         3.2380063779        7.4760939582        5.8564525219
 Ga         3.2385050306        7.4752760018        7.8274255506
  N         3.2388358039        5.6071557052        8.4656039372
 Ga         3.2378083561        5.6081078400       10.4559153232
  N         3.2369860258        7.4768996204       11.0291445623
 Ga         3.2378534516        7.4763062258       13.1088198639
  N         3.2373594370        5.6069395318       13.4411406825
 Ga         1.6190531867        8.4107543430       -0.1455282212
  N         1.6190260979       10.2789896766        0.6293176318
 Ga         1.6193593942       10.2791240002        2.5671741569
  N         1.6193638759        8.4102184285        3.2440064076
 Ga         1.6196554942        8.4101803003        5.2069502571
  N         1.6194568877       10.2791952418        5.8560029954
 Ga         1.6189941802       10.2791379481        7.8267448115
  N         1.6190039821        8.4100458487        8.4645486607
 Ga         1.6196573490        8.4089248199       10.4545729938
  N         1.6188090770       10.2778482369       11.0277163766
 Ga         1.6196142519       10.2788746403       13.1088112698
  N         1.6192100969        8.4099115349       13.4453139664
 Ga         9.7119683204        0.0001317044       -0.1454227492
  N         9.7118145069        1.8685739838        0.6290302030
 Ga         9.7120669430        1.8687008324        2.5669051636
  N         9.7121237111       -0.0002890996        3.2441541419
 Ga         9.7122181095       -0.0002301734        5.2069746237
  N         9.7119081899        1.8683331107        5.8557861490
 Ga         9.7115611925        1.8684199358        7.8264163652
  N         9.7119922101       -0.0005957437        8.4658704162
 Ga         9.7128272797       -0.0015098475       10.4568343586
  N         9.7112026726        1.8681491940       11.0269524661
 Ga         9.7116377609        1.8687018586       13.1078953957
  N         9.7114973409        0.0000560490       13.4428215546
 Ga         8.0932633905        2.8034848141       -0.1458216643
  N         8.0933395373        4.6720808340        0.6286325034
 Ga         8.0934700484        4.6720922471        2.5666110071
  N         8.0934928494        2.8031629318        3.2436829240
 Ga         8.0936305480        2.8033197076        5.2066446701
  N         8.0935771868        4.6721377909        5.8553052565
 Ga         8.0930985154        4.6724032841        7.8259303420
  N         8.0943180261        2.8033671582        8.4634464885
 Ga         8.0935399975        2.8032853076       10.4531085994
  N         8.0955863498        4.6713625089       11.0270726982
 Ga         8.0928839538        4.6713551716       13.1068080714
  N         8.0927841194        2.8026845897       13.4455161562
 Ga         6.4744848245        5.6072278037       -0.1453380166
  N         6.4746416834        7.4755351574        0.6293926788
 Ga         6.4749868126        7.4755025776        2.5672363414
  N         6.4749234027        5.6065495219        3.2439233321
 Ga         6.4746288554        5.6061687711        5.2069432939
  N         6.4744131902        7.4753102086        5.8561019207
 Ga         6.4749373744        7.4744484098        7.8270662353
  N         6.4747568676        5.6050891053        8.4652253204
 Ga         6.4746662357        5.6046490188       10.4553465269
  N         6.4748232122        7.4734780604       11.0288121634
 Ga         6.4748431575        7.4763860892       13.1087635654
  N         6.4748226787        5.6062078780       13.4401793250
 Ga         4.8560002435        8.4108038602       -0.1449198355
  N         4.8559785791       10.2790067104        0.6298033571
 Ga         4.8565256730       10.2791727356        2.5675493698
  N         4.8564624162        8.4102296472        3.2445133075
 Ga         4.8562923797        8.4102728298        5.2074649483
  N         4.8561166135       10.2793507229        5.8566426369
 Ga         4.8572512209       10.2795484214        7.8277327566
  N         4.8572020415        8.4104439640        8.4654703166
 Ga         4.8567233000        8.4098066537       10.4561720929
  N         4.8569821533       10.2788240254       11.0300735264
 Ga         4.8554661275       10.2795362975       13.1097182818
  N         4.8561345351        8.4104813429       13.4415611049
  H         4.8557272367        8.4104862932       -1.6982207755
  H         1.6186452755        8.4106488623       -1.6989810042
  H        -1.6181532228        8.4106022518       -1.6991947090
  H        -4.8553388641        8.4104071174       -1.6986732342
  H         6.4745090986        5.6071770108       -1.6987798667
  H         3.2374620133        5.6073763242       -1.6983680957
  H         0.0003502480        5.6075154329       -1.6992322227
  H        -3.2367427535        5.6073089684       -1.6995611133
  H         8.0929290426        2.8030698610       -1.6992677732
  H         4.8560516673        2.8031169474       -1.6983802344
  H         1.6189169424        2.8033310292       -1.6981511310
  H        -1.6184451417        2.8031883639       -1.6990163954
  H         0.0002249869       -0.0004975065       -1.6980027706
  H         3.2375616456       -0.0004775546       -1.6980547285
  H         6.4745679102       -0.0004714966       -1.6989148934
  H         9.7112757682       -0.0005020228       -1.6987773147
     208
 i =        2, E =     -8127.3269226939
 Ga         0.0005329989        0.0003055826       -0.1450921423
  N         0.0004811940        1.8612188614        0.6297591667
 Ga         0.0009637813        1.8615812033        2.5673580876
  N         0.0006733664       -0.0003749007        3.2449320920
 Ga         0.0014120183        0.0004908194        5.2076806671
  N         0.0006259574        1.8619663519        5.8560683569
 Ga         0.0014323456        1.8619933641        7.8276916044
  N         0.0027960838        0.0004866880        8.4649457676
 Ga         0.0003070940       -0.0001251057       10.4566230802
  N        -0.0014430193        1.8626790777       11.0286734481
 Ga        -0.0013741669        1.8624798234       13.1069315165
  N         0.0001008255        0.0000300273       13.4430363032
 Ga        -1.6116653782        2.7931280650       -0.1460841978
  N        -1.6118585440        4.6540471853        0.6288613327
 Ga        -1.6115956627        4.6541959744        2.5659079821
  N        -1.6116195263        2.7927937027        3.2440500707
 Ga        -1.6113257052        2.7916443026        5.2068550880
  N        -1.6115724508        4.6545550582        5.8547441102
 Ga        -1.6127273618        4.6545810589        7.8274718851
  N        -1.6121664485        2.7918140555        8.4636094597
 Ga        -1.6123888311        2.7927266995       10.4546836699
  N        -1.6137828086        4.6546978895       11.0274997188
 Ga        -1.6117639941        4.6543947626       13.1074255054
  N        -1.6114883878        2.7923512911       13.4470914397
 Ga        -3.2240665986        5.5859129124       -0.1467156410
  N        -3.2241516878        7.4469313286        0.6290860195
 Ga        -3.2238456686        7.4471037792        2.5663937978
  N        -3.2236312898        5.5852883814        3.2433765927
 Ga        -3.2246284301        5.5854185162        5.2061743079
  N        -3.2240141563        7.4472174979        5.8549209840
 Ga        -3.2241625050        7.4477837518        7.8273782561
  N        -3.2235111002        5.5853941509        8.4618538983
 Ga        -3.2234312861        5.5871100294       10.4542956915
  N        -3.2238646993        7.4503093328       11.0274723016
 Ga        -3.2252453376        7.4465361256       13.1061519932
  N        -3.2255784192        5.5858589311       13.4424512402
 Ga        -4.8366883256        8.3786773071       -0.1457956192
  N        -4.8366299440       10.2395218483        0.6299880756
 Ga        -4.8363014654       10.2398115212        2.5675102281
  N        -4.8364028919        8.3777445574        3.2443185358
 Ga        -4.8364330807        8.3783409797        5.2070617530
  N        -4.8368551936       10.2397352356        5.8558838803
 Ga        -4.8370614239       10.2396530992        7.8273994146
  N        -4.8370805061        8.3779010474        8.4639758200
 Ga        -4.8371402988        8.3755867772       10.4559435213
  N        -4.8371739607       10.2397790290       11.0296884881
 Ga        -4.8370849787       10.2387410464       13.1099502024
  N        -4.8366628846        8.3769325391       13.4456083593
 Ga         3.2251457618        0.0002970334       -0.1451264196
  N         3.2251326193        1.8613118227        0.6300279138
 Ga         3.2254244452        1.8613847931        2.5672024735
  N         3.2255137677       -0.0002140118        3.2446501287
 Ga         3.2251489935       -0.0006964861        5.2073676574
  N         3.2253487963        1.8615105234        5.8562520734
 Ga         3.2239935531        1.8610963831        7.8286292878
  N         3.2253539917       -0.0018469702        8.4651153338
 Ga         3.2247636784       -0.0013894989       10.4567013380
  N         3.2213690395        1.8591130544       11.0298768635
 Ga         3.2257316944        1.8608900172       13.1098004643
  N         3.2266731973       -0.0018146326       13.4448752055
 Ga         1.6128008844        2.7931093000       -0.1452845055
  N         1.6126318849        4.6540610065        0.6295232660
 Ga         1.6132473969        4.6542403679        2.5668120060
  N         1.6132946461        2.7926001692        3.2447613534
 Ga         1.6124811805        2.7925521616        5.2076610575
  N         1.6130296398        4.6547951605        5.8559272822
 Ga         1.6136352996        4.6541748590        7.8285557425
  N         1.6136498023        2.7922171683        8.4643153766
 Ga         1.6132574118        2.7932027360       10.4561100388
  N         1.6134995567        4.6550927295       11.0289383041
 Ga         1.6111003388        4.6549992356       13.1076420627
  N         1.6116077714        2.7936259872       13.4392363848
 Ga         0.0003862225        5.5859447595       -0.1464715158
  N         0.0003385102        7.4468219048        0.6291210467
 Ga         0.0006867707        7.4472202697        2.5665666558
  N         0.0005330319        5.5850897101        3.2438304033
 Ga         0.0011920170        5.5854553787        5.2064112752
  N         0.0007526362        7.4468471064        5.8549093608
 Ga        -0.0001322506        7.4473026249        7.8266143327
  N         0.0010275001        5.5854871106        8.4636480915
 Ga         0.0022862322        5.5850421338       10.4570577548
  N        -0.0006308032        7.4489515987       11.0259661720
 Ga         0.0003674587        7.4464632947       13.1073711612
  N         0.0002378411        5.5848802199       13.4437172862
 Ga        -1.6120092053        8.3787097959       -0.1461875517
  N        -1.6119545302       10.2396309535        0.6296467467
 Ga        -1.6116961625       10.2398218152        2.5670644847
  N        -1.6117078290        8.3779910783        3.2438043352
 Ga        -1.6113641425        8.3783369051        5.2066313743
  N        -1.6115533562       10.2402458437        5.8553251052
 Ga        -1.6120331209       10.2403504938        7.8271317006
  N        -1.6103617882        8.3782751661        8.4617793264
 Ga        -1.6114842353        8.3782844206       10.4529775942
  N        -1.6112654319       10.2399549638       11.0286643747
 Ga        -1.6123635546       10.2391394952       13.1082213848
  N        -1.6126638713        8.3765475254       13.4456191790
 Ga         6.4498190691        0.0003456495       -0.1460923549
  N         6.4497501946        1.8613292581        0.6294831243
 Ga         6.4501470825        1.8614475593        2.5665206490
  N         6.4502276031       -0.0000871896        3.2441636763
 Ga         6.4501748415       -0.0003938086        5.2067874670
  N         6.4496499601        1.8615493710        5.8557288993
 Ga         6.4503817531        1.8618263352        7.8285660862
  N         6.4510776872       -0.0008884952        8.4631789543
 Ga         6.4510552928        0.0021296317       10.4561098403
  N         6.4495538114        1.8624105450       11.0281903768
 Ga         6.4498178387        1.8605952607       13.1067745144
  N         6.4494778055       -0.0006124871       13.4408668213
 Ga         4.8372117320        2.7929362403       -0.1457103092
  N         4.8372891181        4.6540720798        0.6295551101
 Ga         4.8376229494        4.6542894579        2.5669254869
  N         4.8376970968        2.7923011498        3.2445617591
 Ga         4.8372728445        2.7924279196        5.2071035863
  N         4.8369900896        4.6538715638        5.8556870650
 Ga         4.8373264234        4.6542472804        7.8276864516
  N         4.8366396685        2.7915511907        8.4645404472
 Ga         4.8366964687        2.7907870136       10.4582158432
  N         4.8368516456        4.6556864544       11.0279371030
 Ga         4.8366156955        4.6526617036       13.1088645020
  N         4.8380264602        2.7915431861       13.4415289660
 Ga         3.2247927588        5.5860540831       -0.1454834179
  N         3.2247904988        7.4468363820        0.6296988470
 Ga         3.2251956867        7.4470924472        2.5670075206
  N         3.2252473743        5.5853058496        3.2444759485
 Ga         3.2252514806        5.5853161936        5.2071369905
  N         3.2254614955        7.4475591828        5.8562156201
 Ga         3.2254782545        7.4465757169        7.8282247883
  N         3.2268555123        5.5854607614        8.4637721681
 Ga         3.2251019529        5.5864015051       10.4558761728
  N         3.2226248809        7.4470985190       11.0276898323
 Ga         3.2249266333        7.4482091401       13.1077431931
  N         3.2245139858        5.5853338036       13.4434432752
 Ga         1.6125884933        8.3788407329       -0.1459514867
  N         1.6124705711       10.2395698041        0.6295047003
 Ga         1.6128177541       10.2397669966        2.5667719227
  N         1.6129162109        8.3780766383        3.2442169209
 Ga         1.6130974128        8.3780415222        5.2068239361
  N         1.6128648414       10.2399618875        5.8554989265
 Ga         1.6122566624       10.2399014516        7.8273918421
  N         1.6127494642        8.3779683785        8.4633725975
 Ga         1.6133896286        8.3768137247       10.4548881141
  N         1.6125347047       10.2384799444       11.0265837470
 Ga         1.6134538109       10.2400129951       13.1083991377
  N         1.6135748541        8.3778846433       13.4500790086
 Ga         9.6744481968        0.0002685784       -0.1459748545
  N         9.6741779117        1.8612553350        0.6291877511
 Ga         9.6744231295        1.8615736497        2.5666865701
  N         9.6747233872       -0.0004365650        3.2443523946
 Ga         9.6743829827        0.0001913493        5.2068634981
  N         9.6743401893        1.8611324663        5.8551219205
 Ga         9.6735101960        1.8615629736        7.8265793782
  N         9.6743364314       -0.0002922461        8.4646072490
 Ga         9.6758403557       -0.0023077516       10.4573939011
  N         9.6735761620        1.8614947550       11.0262639969
 Ga         9.6743250974        1.8609977011       13.1072362184
  N         9.6741572532       -0.0000755553       13.4455905432
 Ga         8.0618439694        2.7928858524       -0.1462321764
  N         8.0619200548        4.6541318701        0.6288162747
 Ga         8.0620509415        4.6541125557        2.5664644098
  N         8.0619987594        2.7923418368        3.2437732457
 Ga         8.0627361985        2.7929402958        5.2066902935
  N         8.0621153436        4.6543811311        5.8548585037
 Ga         8.0618344072        4.6544778423        7.8265747144
  N         8.0638857086        2.7923272430        8.4620291781
 Ga         8.0615423211        2.7931947731       10.4530437534
  N         8.0627464097        4.6530026135       11.0266382619
 Ga         8.0612610709        4.6541381991       13.1057358678
  N         8.0613600247        2.7923043171       13.4472867330
 Ga         6.4492759427        5.5860068382       -0.1457909251
  N         6.4494286346        7.4468381258        0.6296359905
 Ga         6.4498107030        7.4468612203        2.5667748933
  N         6.4496388099        5.5852753868        3.2441237019
 Ga         6.4498000644        5.5844404406        5.2069069746
  N         6.4488788558        7.4469988473        5.8557786353
 Ga         6.4501592792        7.4457039911        7.8282050833
  N         6.4494137675        5.5834341657        8.4638561906
 Ga         6.4494198426        5.5831501135       10.4555529412
  N         6.4498025434        7.4453473516       11.0277813701
 Ga         6.4501956476        7.4477346568       13.1083289587
  N         6.4503118424        5.5844777717       13.4451387222
 Ga         4.8370184518        8.3789291024       -0.1456187349
  N         4.8369093829       10.2395342119        0.6300427814
 Ga         4.8374596754       10.2399597574        2.5669347984
  N         4.8375202326        8.3781990573        3.2447777920
 Ga         4.8371702355        8.3778837486        5.2071647218
  N         4.8371242331       10.2397832701        5.8565566527
 Ga         4.8382600529       10.2408101082        7.8294539363
  N         4.8381551375        8.3774806531        8.4640944940
 Ga         4.8379197332        8.3773696299       10.4579374791
  N         4.8374086616       10.2405815706       11.0298953651
 Ga         4.8357477857       10.2402496493       13.1084672368
  N         4.8367250419        8.3786110671       13.4407225821
  H         4.8367246523        8.3783360149       -1.6977717311
  H         1.6121793387        8.3784934255       -1.6984762760
  H        -1.6121160436        8.3784767719       -1.6986822587
  H        -4.8368009888        8.3782997001       -1.6981771031
  H         6.4493224571        5.5857480240       -1.6982810883
  H         3.2247971498        5.5859292822       -1.6978903291
  H         0.0002126834        5.5860647099       -1.6987468209
  H        -3.2243898696        5.5858864665       -1.6990610947
  H         8.0615799134        2.7923703937       -1.6987583487
  H         4.8371886241        2.7924171469       -1.6979116418
  H         1.6125718627        2.7925947062       -1.6976717409
  H        -1.6122430769        2.7924317540       -1.6985264399
  H         0.0002420628       -0.0005076097       -1.6975270450
  H         3.2250390230       -0.0004747885       -1.6975690901
  H         6.4495318365       -0.0004736116       -1.6984254858
  H         9.6737387343       -0.0005098455       -1.6983005968
     208
 i =        3, E =     -8127.3271605014
 Ga         0.0005344212        0.0002640739       -0.1457095169
  N         0.0004772185        1.8609432150        0.6302563913
 Ga         0.0009556363        1.8612755976        2.5669533786
  N         0.0006415517       -0.0003934582        3.2453042122
 Ga         0.0014909714        0.0005335499        5.2073273804
  N         0.0006487766        1.8616278080        5.8563599749
 Ga         0.0013914861        1.8617066296        7.8273294307
  N         0.0030743775        0.0004609007        8.4650029965
 Ga         0.0003815902       -0.0002234844       10.4561865547
  N        -0.0015151620        1.8624156927       11.0289184419
 Ga        -0.0013950971        1.8621960027       13.1064318232
  N         0.0000060224       -0.0001240033       13.4437722230
 Ga        -1.6113871387        2.7926592138       -0.1466846529
  N        -1.6115948796        4.6533140505        0.6293420780
 Ga        -1.6113409240        4.6534146577        2.5654424678
  N        -1.6113599251        2.7923671732        3.2444471549
 Ga        -1.6110121129        2.7911244437        5.2065246872
  N        -1.6112963416        4.6538307429        5.8551015155
 Ga        -1.6124043631        4.6537163322        7.8273239420
  N        -1.6118032384        2.7911977396        8.4637584263
 Ga        -1.6122028313        2.7922911350       10.4542645781
  N        -1.6137500051        4.6540903404       11.0278547047
 Ga        -1.6113090807        4.6535815850       13.1073868543
  N        -1.6110352611        2.7917902945       13.4488215317
 Ga        -3.2235007081        5.5849702234       -0.1473335083
  N        -3.2236312050        7.4457371817        0.6295786777
 Ga        -3.2232984204        7.4458665992        2.5659365717
  N        -3.2230586545        5.5843611991        3.2437767579
 Ga        -3.2241289193        5.5845134735        5.2058297624
  N        -3.2234543166        7.4459790923        5.8553106115
 Ga        -3.2236829284        7.4466298524        7.8271956640
  N        -3.2229443290        5.5843246996        8.4620050036
 Ga        -3.2229932424        5.5861886303       10.4540683834
  N        -3.2234763058        7.4490939729       11.0278360207
 Ga        -3.2249133478        7.4454442642       13.1056691817
  N        -3.2250355136        5.5849521186       13.4425140466
 Ga        -4.8358727170        8.3772540429       -0.1464202217
  N        -4.8358373114       10.2378707359        0.6304796207
 Ga        -4.8355130556       10.2381230945        2.5670817897
  N        -4.8355874410        8.3763301846        3.2447198787
 Ga        -4.8356358800        8.3769892719        5.2067544339
  N        -4.8360653276       10.2380525332        5.8561184450
 Ga        -4.8361981753       10.2379614811        7.8270298978